
48932  0.0000000e+00
  62.8679419  58.4365225  48.6985540  63.0170536  59.3714809  49.0502930
  63.4645939  57.7902317  49.1949558  61.9428158  58.1128025  48.9423847
  62.9949856  58.3266068  47.2258854  63.9878321  58.7262678  47.0194387
  63.0463600  56.8787909  46.7715120  63.8327122  56.2538671  47.1948481
  62.0106888  56.5520859  46.8650866  63.2976580  56.9065666  45.2862740
  62.5163078  56.1046076  44.4359636  61.7496967  55.4251671  44.7781134
  62.7722120  56.1336184  43.0656147  62.1081161  55.6312275  42.3778772
  63.9093828  56.8422699  42.4800539  64.1396999  56.8139601  41.4252758
  64.7800112  57.3524761  43.4168148  65.7548571  57.6495171  43.0592632
  64.4282627  57.5586128  44.7677994  65.0911951  58.1105232  45.4176617
  61.8851519  59.0692854  46.5429592  60.7626724  58.9871359  47.0154238
  62.1622276  59.8346901  45.5028868  63.0924416  59.7822618  45.1129532
  61.1072540  60.6511354  44.8996162  60.1069403  60.3518248  45.2124929
  61.2173414  62.1399403  45.2518606  62.1655512  62.5435543  44.8967648
  60.1280308  63.0125666  44.6142864  60.2573252  64.0885353  44.7312450
  60.1695108  62.9299736  43.5282135  59.1525555  62.7509356  45.0242853
  61.1083698  62.3188019  46.7222881  60.4623795  61.5377235  47.1231842
  62.0111561  62.0209265  47.2555351  60.8516836  63.7938833  47.2350979
  61.2170267  63.8927221  48.2572794  61.5031958  64.4755220  46.6882944
  59.8024702  64.0464258  47.0819044  61.1442947  60.4113102  43.3928680
  62.0103598  60.8500051  42.6194954  60.0176144  59.7909927  42.8868484
  59.2888832  59.5169878  43.5302544  59.7548580  59.3652582  41.5445518
  60.6242228  58.8408279  41.1479616  58.6611032  58.3147812  41.6058207
  57.8736687  58.6801672  42.2650146  57.9050398  58.2022715  40.2430677
  58.5751820  57.8754377  39.4479632  57.1964931  57.3875475  40.3923512
  57.4206829  59.1277170  39.9315262  59.2175293  56.9768476  41.9777346
  58.5005856  56.1558199  41.9754505  60.0099468  56.8362236  41.2426138
  59.5922184  57.0146894  43.0006170  59.3469906  60.5543566  40.6643295
  58.4772635  61.3421917  41.0010433  60.0572491  60.6785631  39.5549965
  60.7975388  60.0070572  39.4095564  60.0914001  61.7720175  38.5862088
  60.9292936  61.6881943  37.8941059  59.2327404  61.7739773  37.9147911
  60.3335762  63.1179619  39.2997241  59.8010445  64.1466999  38.7877226
  61.1553288  63.0874014  40.3537321  61.4833546  62.1897793  40.6804895
  61.4675617  64.3449831  41.1609554  62.1462440  64.0733337  41.9694757
  61.9542122  65.0243235  40.4611158  60.2190161  65.0821447  41.6784620
  60.2375650  66.2685156  41.9649839  59.0833044  64.3786716  41.7564106
  59.1270685  63.4466934  41.3696289  57.7626657  64.9373102  42.0959282
  57.9206514  65.8111334  42.7280426  56.9999456  65.5364990  40.8899403
  57.6550913  66.1714792  40.2935457  56.6755438  64.6713257  40.3117132
  55.7492638  66.3407040  41.1596107  55.1803255  66.0208941  42.0326042
  55.9747076  67.3969412  41.3067245  54.9446249  66.3384390  39.8432279
  55.6382084  66.8050241  39.1436911  54.7965145  65.3235531  39.4742155
  53.6139345  67.1440029  39.9347806  53.1430244  67.0660686  38.9548445
  52.9295492  66.6157389  40.5985975  53.6996126  68.6108971  40.2061653
  52.7655363  68.9605474  40.0469542  53.9905357  68.8134098  41.1519194
  54.3189621  69.0087652  39.5146418  56.8690062  64.1217136  43.0007601
  56.3629484  64.6580410  43.9825630  56.8816423  62.7939510  42.8430319
  57.3336697  62.4631691  42.0025826  56.1289549  61.8200874  43.5981035
  55.3188324  62.3774672  44.0683460  55.4785872  60.9462833  42.4095154
  56.2861824  60.4892302  41.8376827  54.8181152  60.2160692  42.8771353
  54.6589613  61.7113161  41.4315653  53.4648132  62.2637749  41.8871164
  53.2024145  62.1912527  42.9322386  52.5525618  62.7853966  40.9646559
  51.5760326  63.1394768  41.2603331  52.9641008  63.0420113  39.6095967
  52.1104765  63.6750841  38.7531662  51.3022518  64.0344381  39.1263080
  54.1969490  62.4536657  39.1539955  54.4570160  62.5362539  38.1090331
  55.0422239  61.8268108  40.0646496  56.0167217  61.4851856  39.7483349
  56.9738388  61.1744595  44.6573925  57.6679659  60.1814747  44.4254065
  56.8976259  61.7838430  45.8664513  56.2038517  62.5170135  45.9016514
  57.5405312  61.3690090  47.1353483  58.5641479  61.1839104  46.8096972
  57.4683809  62.5098085  48.2024193  57.9332924  63.4247303  47.8351593
  56.4069653  62.7304363  48.3157110  58.0339622  62.1218538  49.4919348
  57.2930622  61.4469004  49.9204206  58.9639235  61.5586233  49.4141769
  58.2429028  63.3134747  50.4968452  58.7985611  64.0922260  49.9744558
  57.2629309  63.7531137  50.6825256  58.8668489  63.0461073  51.8830252
  58.2367468  62.4166489  52.5113964  59.8063135  62.4934864  51.8717813
  59.1060877  64.2974806  52.6462173  58.3027792  64.8917675  52.7932692
  59.4080973  64.0764570  53.5843229  59.8051643  64.8313665  52.1498775
  56.9400787  60.0664902  47.6334524  55.7192469  59.9478531  47.6699829
  57.7368307  59.0852928  47.9316950  58.7105656  59.1579199  47.6734924
  57.2011089  57.7488852  48.4578991  56.3070774  57.5390816  47.8707075
  58.1035376  56.5170383  48.1463337  59.0473223  56.4902830  48.6909962
  57.4236155  55.6834698  48.3223438  58.4974909  56.2920809  46.6458654
  59.1860676  57.0379114  46.2487555  59.2097330  54.8610210  46.5492344
  60.2721786  54.9762201  46.7637920  58.8474989  54.1007376  47.2412205
  59.1644096  54.4533300  45.5393648  57.2699022  56.1902094  45.7238483
  57.6030684  55.7609653  44.7789431  56.4924192  55.5303001  46.1087370
  56.8669510  57.2012472  45.6643724  56.8516588  57.9016733  49.9528933
  57.5200987  58.6578226  50.7094336  55.7860088  57.2767258  50.4165602
  55.3193092  56.7076015  49.7248983  55.0944710  57.6731586  51.6633701
  55.6496096  58.4308434  52.2164011  53.7041807  58.2252645  51.4344215
  53.3190346  57.4595356  50.7610559  52.8096342  58.4026289  52.6696539
  53.3572483  59.0091944  53.3909750  51.8484974  58.8383055  52.3966980
  52.5626183  57.4788237  53.1927872  53.8143539  59.5900297  50.7952166
  54.3738031  59.5557022  49.8603678  52.8253078  60.0377560  50.6981277
  54.4904470  60.2179432  51.3755083  55.1428270  56.4633751  52.5206375
  55.5232763  56.5603733  53.6765099  54.7625303  55.3271008  51.9631863
  54.6706247  55.3167772  50.9574318  55.0433016  53.9790535  52.5460863
  56.0662651  54.0613461  52.9133368  54.0645361  53.7931442  53.7687206
  54.3371630  52.9339981  54.3816185  54.1341496  54.6338701  54.4589615
  52.5400352  53.6948061  53.2687044  52.2580385  54.5175791  52.6117182
  52.3364210  52.7780771  52.7153063  51.5514755  53.8092279  54.4179726
  51.6565895  52.8673077  54.9563408  51.8494511  54.6517944  55.0419855
  50.1476431  53.9192629  53.9739418  49.9075699  53.7915039  53.0012417
  49.0892887  54.0100718  54.7624969  49.2238665  54.1367102  56.0728979
  50.1520443  54.3008947  56.4356995  48.4135056  54.2417192  56.6665268
  47.9141617  53.8516378  54.2653275  47.7984047  53.7821198  53.2643938
  47.1003580  53.8215303  54.8627520  54.9595070  52.8657866  51.4871788
  54.2019653  52.9697657  50.5292892  55.6190109  51.7305136  51.7468977
  56.1491060  51.6668320  52.6042461  55.4937553  50.4774380  50.9926081
  55.3189039  50.7642651  49.9556637  56.7096949  49.6478748  51.0899544
  57.5193262  50.3761292  51.0425615  56.8172932  49.2151451  52.0845747
  56.9225025  48.7305212  49.8752546  56.2075043  47.9079199  49.8894072
  56.8363190  49.3433380  48.9779663  58.3081198  48.0737114  49.9057436
  58.2500076  47.4923849  48.9855433  59.0352345  48.8817453  49.9862719
  58.4018469  47.0923233  51.0830355  58.2969618  47.6634693  52.0054722
  57.4976492  46.4847803  51.0454178  59.5453024  46.1132717  50.9956980
  59.6424294  45.7537889  50.0568485  60.3877211  46.5902519  51.2836647
  59.3829250  45.3653717  51.6547823  54.2495203  49.6672678  51.3875437
  53.9964819  49.6243095  52.5767231  53.4901857  49.0159082  50.4842854
  53.9310408  48.9443064  49.5784044  52.3114014  48.2163906  50.7357883
  51.9657564  48.4593391  51.7405796  51.2314653  48.6182404  49.7918797
  51.5134001  48.3220434  48.7814951  49.9024820  47.9557943  50.0792933
  49.1226149  48.1305408  49.3380928  50.0583410  46.8771172  50.0631905
  49.6466064  48.2860756  51.0860491  51.0668564  50.1704168  49.5287228
  52.0322609  50.4283094  49.0933037  50.2276659  50.2835894  48.8423920
  50.9277725  51.1278582  50.7362366  50.0018501  50.8944750  51.2618828
  51.7081547  51.1835003  51.4951897  50.7621002  52.1407461  50.3692007
  52.6112556  46.7180300  50.7370090  51.9877577  46.0183477  51.5714216
  53.4599495  46.2404776  49.8358583  53.9359140  46.9717312  49.3271065
  53.6107254  44.8684406  49.3197250  53.7628698  44.2463779  50.2017641
  52.6908016  44.5314169  48.8419533  54.7068930  44.6444702  48.1982470
  55.0307894  45.7050705  47.5770521  55.2221489  43.4493256  47.8294849
  54.9390078  42.6704121  48.4067392  56.2125778  43.0756474  46.8740416
  56.2135077  43.8633776  46.1206579  57.5617218  42.9024887  47.5346184
  57.8543377  43.9119577  47.8234768  57.5904846  42.3476934  48.4724236
  58.5898161  42.6034689  46.5772247  58.7850142  43.4753323  46.2260056
  55.8883715  41.7341232  46.2872314  55.2964449  40.9090948  46.9965267
  56.1685467  41.4989519  45.0345945  56.5766764  42.2780275  44.5380306
  55.7456207  40.4623175  44.1644430  55.7823706  39.4457030  44.5559120
  54.6959972  40.6210232  43.9170504  56.5688181  40.4295588  42.8431702
  57.7061415  40.8536673  42.7503157  55.8547640  39.9262452  41.7992878
  54.8853827  39.6765161  41.9335794  56.5241575  39.3238664  40.6038666
  57.5012350  38.9346910  40.8901548  55.7432508  38.2074714  40.0027227
  54.7637081  38.5495734  39.6687174  56.2649202  37.7576184  39.1579700
  55.5958509  37.1626830  40.9865904  55.2310610  36.3546586  40.6183147
  56.8863583  40.3429461  39.4884133  56.9935083  39.9344468  38.3270025
  56.9589090  41.5894651  39.8547363  56.7225409  41.8762589  40.7938766
  57.6154804  42.5845337  38.9920163  58.3070993  42.1611071  38.2636786
  56.5889168  43.5754871  38.3488011  57.1127701  44.1490269  37.5841188
  55.8180094  42.9653835  37.8780842  55.8910990  44.4899607  39.3339825
  56.2576962  45.7955027  39.4760513  57.0164394  46.1670923  38.8032722
  55.7615042  46.5861797  40.5696011  56.1288071  47.5653028  40.8394432
  54.7792101  45.9904909  41.4035511  54.2574024  46.4964342  42.2023964
  54.2679930  44.7190094  41.1002970  53.5261011  44.2599964  41.7369270
  54.8426914  43.9147425  40.1138592  54.5075560  42.8924227  40.0192690
  58.5368156  43.4837866  39.9187136  59.6144056  43.9235067  39.5322824
  58.1510067  43.6014843  41.1969090  57.3148680  43.1613207  41.5535975
  58.6668253  44.7060108  42.0282173  59.6995211  44.6106434  42.3636961
  58.6300850  45.6037807  41.4111567  57.8200626  44.9243736  43.2562733
  57.4601603  43.9252758  43.8641167  57.7814388  46.1581469  43.7556982
  58.0752897  46.9829464  43.2522535  57.0523739  46.5447521  44.9436760
  56.6245270  45.5990839  45.2764750  58.0696201  46.9650269  46.0480738
  58.1325197  48.0528164  46.0186195  57.6264763  46.7443323  47.0191669
  59.4571924  46.2932873  46.0675192  59.4222689  45.0314331  46.3415146
  60.4455471  46.9522142  45.6771040  55.8361197  47.5583649  44.6539354
  55.6369448  48.0440331  43.5263300  55.0037241  47.7365160  45.6713295
  55.2862167  47.1920395  46.4737320  53.8097095  48.5180998  45.6912899
  53.6344767  48.9795923  44.7194767  52.6523066  47.5850391  46.0691690
  52.7625084  47.2623348  47.1044588  51.3260794  48.3314610  46.1168098
  50.5730534  47.7661276  46.6658592  51.3708782  49.3367624  46.5356874
  50.9585190  48.3791018  45.0917578  52.5975990  46.4449072  44.9912930
  52.3499441  46.8272448  44.0010452  53.4566832  45.7741928  45.0059795
  51.4955616  45.4051876  45.2629232  51.6736603  44.5796299  44.5738363
  51.5413857  45.1712084  46.3265276  50.5308914  45.8169460  44.9663162
  53.9108944  49.5883799  46.7535067  54.3670321  49.2290163  47.8453588
  53.6140823  50.8944416  46.4627171  53.2375240  51.1074591  45.5500650
  53.8715601  52.1246624  47.1781540  54.1178370  51.9581604  48.2268333
  55.1446009  52.7968502  46.5904856  55.3688669  52.5683928  45.5485582
  55.1325750  53.8797855  46.7138004  56.4582109  52.2956991  47.2631216
  57.1403980  51.2103558  46.6578102  56.7589378  50.8566093  45.7113695
  58.3227825  50.7635641  47.2604275  58.9166164  50.0587320  46.6974163
  58.7590456  51.3564444  48.4955549  60.0255394  51.1177540  49.0678549
  60.4713058  50.3955317  48.6192083  57.9882336  52.3413992  49.1307068
  58.2745075  52.7729273  50.0784588  56.7973471  52.7971363  48.4916067
  56.2174749  53.5663509  48.9799309  52.6739502  53.0802441  47.1709347
  52.1371698  53.4054470  46.1159325  52.2523880  53.6389637  48.2999420
  52.7292538  53.3591747  49.1451788  51.7119026  54.9709892  48.3570385
  51.0681343  55.1507711  47.4960279  50.8241272  55.0744104  49.6076155
  50.0215530  54.3597174  49.4254446  51.3833237  54.7440481  50.4829788
  50.2549171  56.4963770  49.8446369  51.0555935  57.2332764  49.9078608
  49.2185163  56.8952703  48.7259960  49.8207617  57.0524454  47.8311777
  48.4998274  56.0866117  48.5931063  48.7738943  57.8580093  48.9780807
  49.4689798  56.4803600  51.1778879  50.1912832  56.4590216  51.9939280
  49.0117216  57.4612474  51.3078165  48.5713673  55.8625937  51.2053537
  52.7571774  56.1168814  48.2595301  53.8060999  56.1433315  48.9222765
  52.4852133  57.0257854  47.3528385  51.6496372  56.8411970  46.8163252
  53.2670832  58.1684256  47.0112610  54.0537882  58.2797670  47.7574539
  53.8678741  57.9254961  45.6130600  54.2539310  56.9062805  45.6292677
  53.1437302  58.0402136  44.8064899  54.7519827  58.5274553  45.4030561
  52.4741983  59.5205116  47.0777559  51.2291431  59.5319319  47.2402811
  53.1087732  60.7040787  47.1456909  54.1146851  60.7439613  47.0641375
  52.3768997  62.0245457  47.2244835  51.4232206  61.8355370  46.7316628
  52.2694445  62.5433636  48.7052107  52.0603657  61.7243147  49.3933582
  53.7159824  62.9405975  49.1381121  54.4538546  62.2064686  48.8145351
  53.9916992  63.9028406  48.7066364  53.7101221  63.1155777  50.2139616
  51.2518740  63.6674309  48.9781809  51.4744949  64.5163012  48.3316803
  50.2556992  63.2704639  48.7828493  51.1883593  64.0471983  50.4380846
  50.2561569  64.5469999  50.7013416  51.1478949  63.1326342  51.0297155
  52.0537186  64.5834446  50.8275557  53.0325985  63.0817080  46.3224316
  54.2828608  63.2541084  46.3353539  52.2525692  63.9252424  45.6861496
  51.2877226  63.6307907  45.7358932  52.7017021  65.0285244  44.8479176
  53.6409473  64.8542356  44.3229961  51.5514517  65.3303814  43.8339663
  51.5644550  64.4531345  43.1871557  50.5905437  65.2489090  44.3420219
  51.7680407  66.6264200  43.0254984  52.7861404  67.2555065  43.1208706
  50.7484102  66.9156122  42.2601128  50.8050299  67.7587986  41.7070007
  49.9490309  66.3309908  42.0618391  52.9066181  66.2466860  45.7426357
  51.9814539  66.8661690  46.2620211  54.1982985  66.5693331  45.8912373
  54.8734570  65.9674644  45.4417753  54.6556377  67.6409435  46.7864370
  54.1095495  67.5041437  47.7198029  56.1403131  67.5290203  47.1091413
  56.4592743  68.1625175  47.9368210  56.4437771  66.1536837  47.7822495
  55.7536077  65.8626795  48.5741377  56.5039539  65.3308344  47.0699358
  57.4539518  66.1777878  48.1909895  57.1273375  67.7825356  45.9020472
  58.1112957  67.3563147  46.0976648  56.7824125  67.2322655  45.0266409
  57.3719835  69.2288780  45.4628658  57.4750710  69.8766375  46.3334322
  58.3608675  69.2271900  45.0043726  56.5801954  69.5680666  44.7949409
  54.2368269  69.0768480  46.4229155  54.1067791  69.9356699  47.2816467
  53.9785528  69.3788004  45.1544571  54.1124964  68.5999155  44.5255709
  53.4143162  70.6454563  44.5813322  54.0574932  71.4786911  44.8644161
  53.5576773  70.4851866  43.0520153  52.6218462  70.0267029  42.7324677
  53.6896944  71.7733717  42.2095823  54.0449905  71.5290833  41.2084866
  52.7325583  72.2721004  42.0570660  54.4127893  72.5024557  42.5751925
  54.6819687  69.6538782  42.5666761  55.4926538  70.1541901  42.4479961
  51.9733143  70.9985733  44.9376345  51.6407061  72.1919823  44.8519087
  51.1482954  70.0180435  45.3434944  51.5120649  69.0787601  45.4177666
  49.7515583  70.2529144  45.7779980  49.7822332  71.1697340  46.3667297
  48.8066339  70.3941965  44.5659971  47.8949976  70.7873583  45.0159311
  49.1626740  71.0368299  43.7607908  48.5301161  69.1197586  43.8079834
  48.8487387  68.0746174  44.2968035  48.0046654  69.0849543  42.5976419
  47.8044081  68.2171249  42.1213341  47.7332592  69.9618435  42.1763277
  49.1130161  69.2366314  46.7715597  47.8971195  69.2361879  47.0809746
  49.9131346  68.2899618  47.2803926  50.8869600  68.3122826  47.0134258
  49.6177673  67.1626997  48.2465887  50.5973911  66.7935133  48.5501289
  49.2284584  67.5880098  49.1716003  48.7226915  66.0369158  47.7354765
  48.1794262  65.2518415  48.5083485  48.5401249  65.9105492  46.3916588
  48.9436913  66.6353226  45.8155155  47.8562546  64.7670746  45.8351183
  46.8158865  64.8641920  46.1454487  47.8297663  64.8676729  44.3353701
  47.7050447  65.9172726  44.0691185  48.7130642  64.5740843  43.7681913
  46.6558886  63.9653206  43.7717581  46.4337778  63.1146288  44.4160318
  45.8046627  64.6196842  43.9596891  46.6476440  63.4535408  42.3295546
  47.4547768  63.9426136  41.4936447  45.8239555  62.6237965  41.9677830
  48.5201406  63.4576607  46.2838650  49.4954395  63.0034876  45.7007408
  47.8375340  62.6353741  47.1090412  46.9343948  62.8902340  47.4825287
  48.2487059  61.2155485  47.2935152  49.3079185  61.1985588  47.5501871
  47.5292540  60.5890036  48.4883595  46.5270948  61.0174465  48.4735489
  47.3852539  59.5085907  48.4801722  48.2433987  60.8856153  49.7388077
  48.9825630  60.0985909  49.8882341  48.8453913  61.7912197  49.6640682
  47.3469734  61.1088705  50.9281349  47.5865793  60.5447388  52.0185852
  46.4731503  62.0142698  50.8485699  48.0097389  60.3156805  46.0556221
  46.8382740  60.3658199  45.5689526  48.9527273  59.5698357  45.5450821
  49.8475885  59.8057795  45.9496212  48.8991642  58.7884712  44.3423510
  47.8808784  58.7079096  43.9619541  49.7307491  59.5390654  43.2739019
  49.8576832  58.8162327  42.4679852  48.8327980  60.6294298  42.6317644
  48.4886503  61.3743401  43.3492422  49.4336414  61.1224413  41.8675470
  47.9609537  60.1356697  42.2025776  51.0829926  60.1555872  43.8560820
  51.8034601  60.1931095  43.0390072  50.9183836  61.1251974  44.3260384
  51.4793777  59.4903517  44.6231890  49.4173670  57.3877144  44.6326351
  50.4881096  57.1624422  45.1893902  48.6628246  56.3862610  44.1634798
  47.8801680  56.6519356  43.5829973  49.1143656  54.9464798  44.1127968
  49.4546509  54.6618319  45.1084280  47.9582834  54.0633821  43.5551643
  48.2203150  53.0178308  43.3930969  47.0600557  54.0693426  44.1726208
  47.6176786  54.4453573  42.5927782  50.3642988  54.8891544  43.1980658
  50.4385519  55.5016327  42.0809317  51.4123201  54.0599871  43.5673571
  51.3247442  53.5002327  44.4034863  52.5863409  53.7547684  42.7422857
  52.3317719  54.0351677  41.7201900  53.8016558  54.6232557  43.2782269
  53.8848114  54.7522068  44.3573761  55.1804876  54.1901636  42.8588486
  55.9642267  54.8759699  43.1805992  55.4767132  53.2196140  43.2568169
  55.2201128  54.1830921  41.7695951  53.6180496  55.9589911  42.5646877
  52.6384401  56.3322878  42.8632021  54.4945192  56.5499592  42.8305197
  53.5463142  55.8595848  41.4816046  52.9575777  52.2392511  42.7412176
  52.7740765  51.5161037  43.7243176  53.5067177  51.7438364  41.6508579
  53.6448383  52.3744726  40.8741236  54.2147732  50.4412842  41.5641165
  54.2032957  49.9389267  42.5313854  53.5193920  49.6539068  40.4822445
  53.5553265  50.1027966  39.4896173  54.0024376  48.6794329  40.4103136
  52.0667028  49.2919588  40.8293247  51.8729925  49.0792608  41.8806744
  51.5101194  50.2201080  40.6995106  51.4182186  48.2162809  39.9242783
  50.3690290  48.0800009  40.1864767  51.5825748  48.3636379  38.8568640
  52.1250153  46.9110346  40.1439381  53.0715036  46.8464041  39.6072054
  52.4501753  46.7161894  41.1659002  51.3127899  45.7569838  39.7292304
  50.9310532  45.8753633  38.8016725  51.8498278  44.9016047  39.7245216
  50.5260324  45.6411982  40.3519011  55.6308174  50.7868052  41.1101151
  55.9083700  51.8090391  40.4773569  56.6094780  50.0361061  41.5806627
  56.3939810  49.3638086  42.3029423  58.0692291  50.2514505  41.4923954
  58.1467199  50.9239817  40.6381083  58.5801172  50.8835077  42.7294350
  58.0199385  51.7972803  42.9277563  58.4241819  50.2316332  43.5889959
  60.1037931  51.2821913  42.5599003  60.3022099  51.3802290  41.4926052
  60.3872824  52.7278137  43.1651878  59.6752024  53.4709120  42.8062248
  60.3505182  52.7008677  44.2542362  61.2995672  53.1257391  42.7207804
  61.1521053  50.3983402  43.1267071  61.0744429  50.3562832  44.2131233
  61.2114573  49.4010735  42.6907825  62.1459293  50.8150387  42.9630899
  58.8303471  48.9571285  41.1253214  59.0873766  48.1239796  41.9600773
  59.0529823  48.7716484  39.8363519  58.7567472  49.5660734  39.2875051
  59.6859503  47.5955057  39.1772461  59.2132759  46.7034435  39.5882392
  59.6005440  47.5660563  37.7200484  58.5263586  47.6406384  37.5507545
  60.0199318  48.4736252  37.2858334  60.0764418  46.2436676  37.0094895
  61.1518383  46.0702658  37.0489144  59.5296049  45.3708553  37.3662448
  59.8147011  46.4050102  35.5147195  59.1505432  45.5137062  34.9863935
  60.3791094  47.4059439  35.0101423  61.0726452  47.3491526  39.7375154
  61.7772055  48.2886600  40.1926374  61.5026283  46.0815382  39.8385382
  60.8602476  45.3909206  39.4772959  62.8622007  45.6075573  40.3406429
  62.8551912  46.1222839  41.3014269  62.7841377  44.1404104  40.5265522
  61.9232368  44.0440083  41.1881065  62.4108982  43.5563231  39.6853399
  63.9457130  43.6434174  41.1716461  63.6419058  43.1050634  41.9061327
  64.0621138  46.0268354  39.5257807  63.9011526  46.2499666  38.3222222
  65.2111101  46.0429907  40.1383400  65.4053354  45.6545782  41.0502148
  66.3857126  46.5549564  39.3837261  66.0914803  47.4539804  38.8421702
  67.4790049  47.0077276  40.3144693  67.7280188  46.2876320  41.0939264
  68.4327221  46.9738913  39.7878027  67.2497654  48.4403944  40.8857155
  66.1794424  48.6367655  40.8228970  67.6561546  48.5197067  41.8940115
  67.8951788  49.5346594  40.0972795  68.4905434  49.4163084  39.0588093
  67.7330780  50.6643105  40.6148958  68.1112623  51.4660931  40.1309347
  67.1159077  50.8809757  41.3844776  67.0016146  45.6106186  38.3913183
  67.3840714  44.5335007  38.7738442  67.2455883  46.0893393  37.1364689
  67.0821476  47.0801830  37.0287013  67.8015947  45.3406620  35.9789562
  67.5886488  45.9937191  35.1326299  69.3779469  45.2014160  36.1576009
  69.6276855  45.0196981  37.2029281  69.8054123  44.4000244  35.5549860
  70.2360773  46.4119577  35.8012748  69.9641657  46.5100813  34.7503042
  69.8071671  47.2651339  36.3268542  71.7573690  46.5237999  36.0362339
  71.9634581  46.2245941  37.0639038  72.2768259  45.8648729  35.3404689
  72.2988796  47.9438496  35.9024835  72.1560192  48.3446884  34.8989797
  71.8267250  48.6229706  36.6123843  73.7202406  48.0655432  36.1159468
  74.1798544  47.2828579  35.6729317  73.9731359  48.9047575  35.6140876
  73.9933157  48.1332350  37.0859718  67.1865463  43.9909983  35.7184076
  67.8602934  42.9909039  35.5010223  65.8554125  43.9607191  35.7052779
  65.3949928  44.8590422  35.7388616  65.0402021  42.8726292  35.2264857
  65.3362036  41.9508648  35.7273245  63.5489082  42.9812145  35.5589437
  63.1204987  43.7758112  34.9480629  63.0329418  42.0210743  35.5561590
  63.4481478  43.4234095  36.5501118  65.2898979  42.5862360  33.7431049
  65.3100061  43.4876728  32.8668356  65.4303694  41.2963152  33.4304714
  65.3745842  40.6709909  34.2216468  65.6615973  40.8038807  32.0916176
  66.4397335  41.4051008  31.6213584  66.0358334  39.3127847  32.1015167
  65.3540802  38.8055897  32.7842069  65.7753325  38.8903165  31.1310697
  67.4973011  39.0971065  32.4017620  68.0593681  39.3036246  31.4909768
  67.8482389  39.5645070  33.3218026  67.7472639  37.6068544  32.8336787
  68.8257122  37.4486423  32.8284359  67.2901392  37.4473786  33.8102531
  67.1582365  36.6210198  31.8587923  66.5114212  36.8463516  31.1165285
  67.0996475  35.3388047  32.0130420  67.7453566  34.6711683  32.9190564
  68.4653234  35.1310897  33.4577823  67.5068331  33.7098384  33.1166744
  66.3518047  34.6678090  31.2510443  65.9317446  35.1909566  30.4960847
  66.5378237  33.6884856  31.0884881  64.4384956  40.9692335  31.2490058
  64.5919704  40.9253597  29.9908662  63.2614994  41.3199615  31.7842746
  63.1367445  41.1997700  32.7793121  62.0460415  41.7085266  31.0444927
  62.3980761  42.2927809  30.1943040  61.4257860  40.4522800  30.4952812
  62.1743155  39.9162459  29.9117827  61.0736609  39.7736454  31.2721753
  60.2340889  40.7092142  29.6160269  60.2441120  40.8747530  28.1908059
  58.9977217  40.7855797  27.8500366  58.5386324  40.9701633  26.8900561
  58.1745481  40.6775904  28.8874340  57.1889830  40.4632854  28.9407396
  58.9435577  40.5337477  29.9922824  58.6061764  40.2990055  30.9910154
  61.1328411  42.5723410  31.8960261  60.9143782  42.3774195  33.1040716
  60.5069447  43.5823202  31.2661409  60.5651522  44.0300035  29.8599720
  60.0665951  43.3443689  29.1748095  61.5978909  44.0416193  29.5115304
  60.0677013  45.4855776  29.7700119  59.0333652  45.5023670  29.4265461
  60.6205273  46.1930513  29.1519785  60.0368261  45.9514523  31.2174463
  59.2220736  46.6633081  31.3498569  60.9965181  46.4288568  31.4154005
  59.8235989  44.6529007  32.0121861  60.2977991  44.8237228  32.9786539
  58.3485126  44.4377422  32.3325944  57.4635172  45.0864744  31.7140532
  58.0132866  43.4023523  33.1361628  58.7832642  42.9369736  33.5951424
  56.5916348  43.0870724  33.4422445  56.1048079  42.7630424  32.5224042
  56.3488674  42.0042849  34.4852781  56.5782642  42.5098324  35.4233074
  55.3011751  41.7339230  34.6169806  57.2449493  40.7968140  34.3093419
  58.2707500  41.1634159  34.2714524  57.2890520  40.2954578  35.2761889
  56.9167948  39.8238730  33.1168199  57.7295017  39.0234137  32.6864672
  55.7953930  40.0023603  32.4465156  55.6794119  39.4271326  31.6244698
  54.9120569  40.3118896  32.8260159  55.7278919  44.2688227  33.8522816
  54.5570469  44.2900372  33.4553361  56.2353325  45.4020119  34.4224381
  57.2357464  45.4616213  34.5478296  55.4147053  46.6193628  34.6586967
  54.4335747  46.2041950  34.8891711  56.0526228  47.3557520  35.8239055
  56.3877726  46.6846848  36.6147542  56.9770479  47.8467941  35.5199051
  55.1803112  48.4369898  36.4419770  55.0493050  49.2121744  35.6869769
  53.7379932  47.9534531  36.8653131  53.1072950  47.6520205  36.0289741
  53.7112951  47.1831274  37.6360178  53.2566023  48.8040304  37.3478937
  55.8554983  49.0953588  37.6085758  56.7645407  49.5122004  37.1750021
  55.3607178  49.9793577  38.0108690  56.0891819  48.3579493  38.3765078
  55.1450872  47.4573946  33.4318566  54.1146421  48.1340361  33.3425450
  56.0579634  47.4592257  32.4710655  56.9144869  46.9358540  32.5831294
  55.7847881  48.0114555  31.2073922  55.5205727  49.0591574  31.3509607
  57.0584297  48.0729675  30.3611636  57.7869701  48.7207031  30.8487844
  57.4236202  47.0559931  30.2179551  56.9183016  48.5581207  28.9549613
  56.2546444  49.4184303  28.8682389  58.3132124  48.9707851  28.4870887
  58.6367226  49.7694778  29.1545701  59.0683651  48.1856155  28.5239244
  58.1907225  49.4428921  27.5123000  56.4599228  47.5647640  27.9043865
  55.3828239  47.4326658  27.8018785  56.8532705  47.7582932  26.9064260
  56.8318510  46.5657139  28.1316996  54.4626284  47.4798203  30.5561781
  53.6488819  48.2986879  30.0895715  54.2442274  46.2187529  30.4972100
  54.9066210  45.5603313  30.8816886  53.1064034  45.5940676  29.7893047
  52.9997778  45.9864902  28.7779999  53.2962036  44.0521812  29.5141149
  53.4314346  43.4672737  30.4238892  52.3523569  43.7323809  29.0725374
  54.3380976  43.7115908  28.5150504  54.1126442  43.7907648  27.0633006
  53.1615734  44.1095018  26.6629648  55.1779795  43.5949993  26.2058687
  55.0793791  43.8332462  25.1570988  56.4447498  43.4489298  26.8036294
  57.5169611  43.4667397  25.9531689  58.3928442  43.4614372  26.3461208
  56.6566181  43.4608364  28.1515574  57.6730871  43.4079027  28.5126567
  55.6408310  43.5814667  29.0397120  55.8019114  43.7910223  30.0868702
  51.7707777  45.7867622  30.4853725  50.6672335  45.9730721  29.9023628
  51.8392467  45.7793188  31.8115902  52.7252007  45.5143785  32.2177744
  50.7449675  46.1934710  32.7421856  49.8300123  45.6535721  32.4983096
  51.1393881  45.9366894  34.1810250  51.3023615  44.8619461  34.2614150
  52.1051168  46.3928843  34.3986440  50.2408409  46.5548277  35.2300358
  50.3542471  47.6373339  35.1715183  49.2052078  46.3604021  34.9511671
  50.3002691  46.0916996  36.6632223  49.3336248  46.3399744  37.4343348
  51.3094139  45.4466343  37.0550990  50.3298616  47.6827812  32.5190902
  49.1714478  47.9490328  32.2908688  51.2834311  48.6103344  32.6237273
  52.2368193  48.2919884  32.7227402  51.0292196  49.9840069  32.2479749
  50.2768850  50.3110981  32.9656839  52.2990513  50.7378006  32.4679661
  52.6075220  50.6968689  33.5126042  53.0850029  50.3230381  31.8368077
  52.0330954  52.1219110  32.2319770  52.7867270  52.6592445  32.4867630
  50.4377890  50.2478218  30.8969545  49.6037340  51.1600351  30.6994343
  50.8819914  49.4857311  29.9048805  51.5686464  48.7781000  30.1236510
  50.3497744  49.5446873  28.5234761  50.4129410  50.5796719  28.1874371
  51.2662029  48.7724257  27.5589252  51.5703773  47.7922916  27.9262328
  50.7498312  48.7937880  26.5992332  52.5369215  49.6322823  27.3139358
  52.1404266  50.6049109  27.0225835  53.0504608  49.8451710  28.2515168
  53.5607147  49.1562080  26.2465501  54.3903780  49.8587704  26.1680341
  53.8589334  48.1637907  26.5845942  52.9471874  49.0833902  24.8533535
  51.9217777  48.7244844  24.9418020  52.9660511  49.9879885  24.2455316
  53.7825918  48.1626940  24.0283942  54.7349215  48.4452486  23.8458300
  53.9015293  47.2654390  24.4766021  53.3691406  47.9150486  23.1407928
  48.9314795  49.1627598  28.5224462  48.1352234  49.7882891  27.9382110
  48.5398626  48.0816317  29.2379355  49.1881132  47.6392651  29.8736882
  47.1532869  47.6495123  29.3605733  46.6975880  47.6092434  28.3712196
  47.1164417  46.1630774  29.9392915  47.6465273  45.4398346  29.3195939
  47.5846863  46.1638308  30.9235907  45.6871033  45.6722403  30.1618981
  45.2580690  46.0695219  31.0817885  44.7235250  45.9216595  29.0183949
  45.2612972  45.4673433  28.1862259  43.8333845  45.3160334  29.1885900
  44.3571281  46.9182587  28.7721515  45.5753994  44.1625500  30.4343843
  45.8214092  43.5351467  29.5776749  46.2294531  43.9695597  31.2847185
  44.5863485  44.0004826  30.8628821  46.3538933  48.5620165  30.2572250
  45.2299500  48.9312267  29.8933220  46.9162750  49.1736412  31.3004661
  47.8468609  48.9680767  31.6349149  46.1026430  50.2012968  32.0125961
  45.1765776  49.7102451  32.3115373  46.7816496  50.7594156  33.3029985
  47.7505875  51.2212181  33.1132746  46.1679983  51.6223621  33.5615706
  46.9319248  49.9642229  34.5423293  48.1781769  49.9032164  35.1560616
  48.9862156  50.4566479  34.7008872  48.3899975  49.2316246  36.3355422
  49.2653608  49.2754269  36.9665980  47.3228598  48.6044407  36.9948936
  47.5826788  47.9251719  38.1572509  48.4374905  47.5002432  38.0556297
  46.0025883  48.6937666  36.4533901  45.1871634  48.3601427  37.0780325
  45.8164406  49.3985701  35.1946712  44.7745800  49.4674253  34.9186587
  45.7891178  51.4514732  31.0447907  44.6463346  51.7957878  31.0069299
  46.7424393  52.0323849  30.2514648  47.6614666  51.6137838  30.2676558
  46.4794302  53.0731726  29.2129660  46.0235214  53.9295864  29.7097707
  47.7805901  53.5427856  28.6112189  48.3358955  54.0214539  29.4178224
  48.2577705  52.7123260  28.0908942  47.7284956  54.6432829  27.5199842
  48.7776709  54.8865271  27.3521543  47.5339222  54.2782927  26.5115047
  47.0375061  55.9898329  27.8037596  45.9677649  55.8180666  27.9231405
  47.4511099  56.3669538  28.7390757  47.4554205  56.9548702  26.6753697
  48.5435867  57.0009422  26.7186761  47.1610403  56.5260553  25.7174778
  46.7490864  58.2642174  26.8042850  45.7430792  58.1833696  26.7654681
  46.9029331  58.7533331  27.6744533  46.8941164  58.8858700  26.0215855
  45.4637814  52.5805521  28.2565928  44.6607685  53.3721352  27.7624154
  45.3954411  51.3022280  27.8600860  46.1274672  50.6970692  28.2036233
  44.2788935  50.8197165  26.9703484  44.2400265  51.4324331  26.0696959
  44.6955824  49.3917418  26.5398765  45.0997210  48.9187193  27.4348712
  43.4794569  48.5636806  26.1047459  43.6625242  47.5681639  25.7003593
  42.8950405  48.3337212  26.9956303  42.8279352  49.0285683  25.3648138
  45.7288551  49.3196535  25.4193306  45.2656698  49.6932507  24.5061016
  46.5066576  50.0390863  25.6753349  46.5101099  47.9887438  25.1816726
  45.8200502  47.1678877  25.3769088  46.9356585  47.9039192  24.1817665
  47.3601389  47.8916931  25.8570528  42.9205751  50.9073782  27.7371407
  41.8756151  51.1948633  27.1838284  42.8808212  50.5229187  29.0517282
  43.7720537  50.2491283  29.4401145  41.6635990  50.4665279  29.8841643
  40.8570337  50.0781918  29.2622685  41.9016218  49.4525337  31.0254908
  42.8424168  49.8065281  31.4470339  41.1546612  49.6101189  31.8035078
  41.9414663  47.9427099  30.5428934  42.5632811  47.8836536  29.6496105
  42.5049686  47.1480513  31.7561245  41.9718313  47.2553110  32.7007699
  42.4237776  46.0986519  31.4728141  43.5674000  47.3408985  31.9049788
  40.6022072  47.3364544  30.1701117  40.0429058  47.2594500  31.1025047
  40.1085377  47.8868532  29.3692040  40.7555151  46.3076115  29.8444057
  41.1888647  51.8147898  30.3102183  40.1241732  51.8670511  30.9262419
  41.8206263  52.9754019  30.0740981  42.7437544  52.9068756  29.6700764
  41.6521263  54.2015743  30.8048010  41.8090916  54.0075874  31.8658543
  42.8865099  55.1204920  30.3993368  43.7629414  54.4725561  30.4113340
  42.7565908  55.4495192  29.3683338  43.0359840  56.4238787  31.1589289
  42.5413275  57.2111082  30.5900025  42.6205683  56.5446520  32.1594048
  44.4458723  56.8566942  31.2894964  45.1718521  56.2010956  31.9607162
  44.7859955  58.0263472  30.8372664  45.7744503  58.2248831  30.8976388
  44.1183662  58.7074852  30.5049610  40.2501774  54.9340248  30.8075047
  39.6782374  55.2515793  29.7100067  39.7262788  55.3112698  32.0294166
  40.2883339  55.2309275  32.8647256  38.3216572  55.7588959  32.0718718
  38.2591224  56.5008497  32.8679204  38.0201697  56.2703753  31.1577630
  37.1767664  54.7620010  32.4208808  35.9743619  55.1331425  32.6654243
  37.5061893  53.4475946  32.3645759  38.4230447  53.2425404  31.9938588
  36.7350435  52.3423386  32.8631353  35.8262753  52.2552299  32.2676086
  37.3570657  51.4608097  32.7079105  36.4036727  52.4438095  34.4146180
  37.1624041  53.0981827  35.1132774  35.2810860  51.8544674  34.7968698
  34.8022461  51.2651300  34.1309166  34.9122763  51.8152428  36.2034082
  34.8377681  52.8386259  36.5711594  33.4566641  51.3005638  36.3139057
  33.4338450  50.2661991  35.9708762  33.0449533  51.2898397  37.8206086
  33.1854653  52.2683191  38.2798910  32.0270348  50.9311342  37.9731679
  33.6947250  50.5820513  38.3353305  32.5129247  51.9425058  35.3129220
  32.5672436  53.0248070  35.4302907  32.6032162  51.5423965  34.3030405
  31.5079045  51.7365837  35.6812191  35.8690572  50.9748983  37.0165944
  36.1712813  49.9040794  36.5917325  36.3529491  51.4347029  38.1481862
  36.1139727  52.4031734  38.3064842  37.2893548  50.6272173  38.9707732
  37.4591017  51.2886238  39.8203802  36.8261123  49.6953011  39.2948747
  38.5824680  50.2753401  38.1990886  39.2210460  49.2166233  38.5158110
  39.0764594  51.1861324  37.4260187  38.5680485  52.0560360  37.3561168
  40.3689957  51.1120319  36.7152786  40.8543873  50.2935553  37.2468710
  40.2689219  50.7612991  35.1997042  39.7247458  51.5651369  34.7038984
  41.6296244  50.7495070  34.5353222  41.4506626  50.5782604  33.4738374
  42.1046638  51.7200661  34.6783018  42.2097874  49.9154758  34.9301720
  39.3944955  49.5491219  34.7996974  38.4045887  49.8116255  35.1728964
  39.3556261  49.4806767  33.7125444  40.0011539  48.2616568  35.3746200
  40.9863853  48.1168890  34.9313855  40.1575422  48.2818031  36.4531541
  39.3169785  47.4611712  35.0931501  41.1456108  52.4723196  37.0011806
  40.6552219  53.5578632  36.6196752  42.2919607  52.4682617  37.7606297
  42.9782295  51.2553263  38.3666587  42.8587294  50.3069830  37.8427696
  42.5400877  51.1548805  39.3596578  44.4006729  51.6627932  38.3707476
  44.8632145  51.5417814  37.3912001  44.8917294  51.0683537  39.1412091
  44.3190956  53.1532192  38.7362337  45.2113008  53.5697746  38.2687330
  44.4381809  53.1611061  39.8196816  43.0555105  53.6666203  38.0781007
  42.4033499  54.2838764  38.6959791  43.4488535  54.4427824  36.8180919
  43.5626745  53.9013863  35.7127690  43.5701656  55.7794189  36.9266963
  43.2840776  56.1134386  37.8359199  43.9656591  56.7480278  35.9427166
  43.8028145  56.2323236  34.9963379  43.1281996  58.0558968  35.9153461
  42.1440697  57.9162931  35.4680204  42.9706287  58.4309006  36.9266057
  43.7922764  59.2322016  35.2346015  44.7997904  60.0495911  35.6984115
  45.1642942  60.8156252  34.6906400  46.0156822  61.4798355  34.7098184
  44.4776869  60.5510139  33.5353303  44.6473217  60.8878279  32.5983787
  43.6303663  59.5601892  33.8786030  42.8960371  59.0451384  33.2770300
  45.4911184  56.9911337  36.0655046  46.0059261  57.3297024  37.1475816
  46.2863922  56.8343925  35.0220466  45.7680511  56.6148090  34.1834712
  47.7377844  57.0331192  34.9817872  48.0791759  56.5338898  35.8886099
  48.2430029  56.3948298  33.6594343  47.6899433  56.9275713  32.8858638
  49.7428131  56.6726160  33.6564827  49.8571205  57.7442026  33.4929729
  50.1495600  56.2244177  34.5630002  50.1745129  56.2160492  32.7658224
  48.0213165  54.8598480  33.6512446  48.6630535  54.4266796  34.4184709
  46.9963074  54.6625519  33.9651465  48.1835365  54.2284679  32.2569299
  47.2744894  54.5070410  31.7238855  49.1012573  54.6698141  31.8682027
  48.2218838  53.1636381  32.4866462  48.0956221  58.5908604  34.9234009
  47.9356098  59.2303801  33.8462687  48.4365368  59.1355371  36.0189652
  48.3121490  58.5111952  36.8030763  48.8749170  60.5425930  36.1204076
  48.1683922  61.2626743  35.7076025  49.0120554  60.7752562  37.6121926
  49.8452854  60.1972675  38.0118942  49.4568872  61.7590761  37.7616072
  47.8392506  60.5656004  38.5446572  47.5063848  59.5481014  38.3397341
  48.1887722  60.7160950  39.5660734  46.7431736  61.5871572  38.2301331
  47.2340965  62.5600672  38.2533526  46.2903404  61.3311052  37.2722816
  45.8261585  61.6235113  39.3567061  46.2213516  61.7459440  40.2780819
  44.4954777  61.4816141  39.3249750  43.9138937  61.0952902  38.2146692
  44.4055271  60.8196783  37.3765564  42.9400206  60.8425999  38.3031154
  43.7215233  61.7138290  40.3238583  44.1365385  62.0021772  41.1983395
  42.8006268  61.3028526  40.2676868  50.1895189  60.8111525  35.4211235
  50.4053402  61.9000244  34.9072289  51.0743999  59.8149204  35.4507637
  50.7993889  58.9208364  35.8316612  52.3128366  59.8562670  34.7601414
  52.1459866  60.0537205  33.7012410  53.2243919  61.0061216  35.2182436
  52.7272129  61.9555664  35.0195765  53.4067774  60.9033251  36.2879491
  54.5415831  61.0949945  34.5027399  54.7091913  61.2375927  33.1687617
  53.9409304  61.3946009  32.4261141  56.0321188  61.1465025  32.9293418
  56.3853693  61.3412046  32.0033789  56.7754364  60.7470274  34.0332413
  58.0481291  60.3205824  34.2673016  58.7606668  60.3098774  33.4557724
  58.5044241  59.8663998  35.5167818  59.5007229  59.5297623  35.7626963
  57.4560308  59.7043991  36.5173960  57.7273893  59.2727280  37.4694633
  56.0867643  60.1369238  36.2855625  55.3926182  60.1400566  37.1129417
  55.8085823  60.6973362  35.0415635  52.9502439  58.4362650  34.8591709
  52.7788162  57.6709509  35.8612347  53.7010241  58.0802488  33.7570405
  53.7874889  58.7231588  32.9829001  54.3634892  56.8181658  33.5343814
  54.5216608  56.3242865  34.4931149  53.5220385  55.8832979  32.6089668
  52.5301981  55.7801247  33.0490851  53.3681726  56.3724089  31.6470957
  54.0830803  54.5050240  32.3432493  55.0548124  53.9383411  33.1998610
  55.2841187  54.4548750  34.1201949  55.7602787  52.8365517  32.8239870
  56.5615702  52.5174141  33.4739780  55.5246067  52.2358608  31.5729284
  56.3977051  51.3486862  31.0266185  57.1401024  51.1591959  31.6050148
  54.5149899  52.7666521  30.7098126  54.2905855  52.3526812  29.7378707
  53.8804483  53.9274549  31.0719180  53.3052015  54.4645071  30.3322768
  55.8065510  57.0384645  32.9272103  56.0542822  57.3517942  31.7350245
  56.7689323  56.7176056  33.7526584  56.5356016  56.1330652  34.5425773
  58.2112503  56.8368530  33.4075856  58.4050560  57.2024250  32.3991728
  58.6960936  57.5855207  34.0341067  58.9323330  55.5084085  33.6886334
  58.3875895  54.4395638  34.0770316  60.2324820  55.5863523  33.4522986
  60.5136299  56.5173817  33.1798315  61.2148046  54.5084715  33.5468030
  60.9178352  53.8180828  34.3362784  61.1910057  53.6818504  32.2401237
  60.1787663  53.4050179  31.9454360  61.5608597  54.3231869  31.4401269
  61.9451904  52.3801613  32.1570182  61.7742491  51.8158579  33.0737758
  61.5600920  51.8801165  31.2683368  63.4741974  52.5608015  31.9148302
  63.9274025  53.6085987  31.5284371  64.2537165  51.5210056  32.2363877
  65.1872683  51.6771364  31.8839598  63.8027143  50.6208181  32.3161674
  62.5207520  55.1623487  33.9580607  63.1235027  55.9250736  33.1716657
  63.0009460  54.9628687  35.1471996  62.4555826  54.3565226  35.7430410
  64.1446304  55.6763983  35.7558846  64.2466211  56.6659355  35.3103304
  63.8464594  55.8979321  37.2994757  62.9310894  56.4838743  37.3823714
  63.7485933  54.9226093  37.7762008  64.9583769  56.7104006  38.0749178
  64.5886230  57.0676041  39.0360570  65.8613539  56.1065674  38.1650090
  65.4648542  57.9726076  37.3344183  65.3723526  59.1228771  37.8883123
  65.9920073  57.8365421  36.2339020  65.3572416  54.8500252  35.4398632
  66.1196709  54.4025087  36.3649893  65.6555557  54.7236872  34.1387439
  65.0986433  55.2629232  33.4913087  66.9244099  54.2367935  33.5148168
  66.9795036  54.6057272  32.4906301  68.1138420  54.8509979  34.2819095
  67.9506350  55.9175491  34.4366264  68.2359743  54.3593836  35.2470517
  69.3759155  54.6008635  33.5466719  69.5461321  53.5502768  33.3113146
  69.3780041  55.1414537  32.6001740  70.5027294  55.1976347  34.3985724
  70.6797743  56.2547064  34.2002034  70.3435946  55.0776148  35.4701948
  71.7181730  54.4313669  34.0433025  71.5256023  53.3682299  34.1873527
  72.0266724  54.5570850  33.0054545  72.7753210  54.7901201  34.9997330
  73.3880091  55.5404949  34.7140002  72.4508381  55.0230026  35.9274077
  73.3573055  53.9709902  35.1018357  66.8798971  52.7023029  33.3474612
  66.8757248  52.2583199  32.1995258  66.8208790  51.9776058  34.4819117
  66.7352581  52.5405216  35.3161120  66.9093513  50.4543734  34.5681047
  67.1063662  50.0695324  33.5675120  68.1670809  50.0256300  35.3469777
  68.0786991  50.2587032  36.4080930  68.2952595  48.9444447  35.2948833
  69.4849300  50.6072283  34.8817039  70.3384924  51.0885334  35.6597686
  69.8478794  50.6110668  33.6979890  65.6391859  49.7832108  35.1769805
  65.6169462  48.5655928  35.4528666  64.5949459  50.5445576  35.3198290
  64.5339012  51.4075851  34.7987175  63.3010292  49.9993086  35.8439469
  63.0369091  49.0046501  35.4847908  63.4876680  49.7012663  37.3766208
  62.7711678  48.9432716  37.6931190  64.3665791  49.0692997  37.5040293
  63.6728907  50.8728838  38.2333350  64.9777031  51.3509178  38.4869409
  65.7936573  50.9501457  37.9038429  65.2308989  52.4579430  39.2603683
  66.2184191  52.8398561  39.4733405  64.2072344  52.8843546  40.1263905
  64.5173979  53.7398386  41.0900927  65.4707527  53.8515329  41.0744190
  62.8727436  52.4562454  39.8001719  62.1054125  52.9244852  40.3988028
  62.6035357  51.4376116  38.9312887  61.5909481  51.0849714  38.8020372
  62.1096039  50.9273100  35.5680680  62.2508240  52.1233988  35.6785655
  60.8541203  50.3965664  35.4245114  60.7785749  49.3899393  35.4577327
  59.6503973  51.1862516  35.2758670  59.8586226  51.9743872  34.5522714
  58.5409546  50.3870058  34.5600295  58.3145857  49.4532919  35.0748467
  57.6046658  50.9279537  34.6972966  58.8741302  50.2061796  33.0925679
  58.6151600  51.0706711  32.2220635  59.5086050  49.0968227  32.7714539
  59.8636341  48.9697361  31.8344879  59.8271608  48.4514856  33.4800911
  59.0162802  51.7043638  36.6243768  59.1517019  51.0668182  37.6503992
  58.3473349  52.8448009  36.5276289  58.4577751  53.3615208  35.6668711
  57.7717113  53.7064505  37.5413847  57.4426842  52.9928446  38.2967687
  58.8305950  54.7150326  38.0734563  58.4932518  55.0341988  39.0595770
  60.2169561  54.1694880  38.3535385  60.6377745  54.7619677  39.1659379
  60.0431633  53.1726360  38.7587357  60.7934093  54.1810083  37.4285150
  58.8515615  56.0579443  37.3197865  57.9313755  56.5717125  37.5980020
  59.6439695  56.6798401  37.7362323  58.9931107  55.9236813  36.2473893
  56.4527512  54.3120527  37.1042967  56.3460350  54.9754095  36.0523367
  55.3678751  54.0688515  37.7784705  55.5749130  53.8032293  38.7306666
  53.9868212  54.2451429  37.3545909  53.9357233  54.7486639  36.3892126
  53.4343815  52.8848028  37.1381068  54.0890312  52.3424959  36.4558721
  53.3409214  52.3770761  38.0980968  52.0211124  52.9582930  36.4954948
  51.3074207  53.5706806  37.0466161  51.9519520  53.4054041  35.0368071
  52.7693987  52.9438639  34.4828534  51.0365343  53.1121206  34.5229101
  52.0755243  54.4871283  34.9848294  51.4558506  51.5210772  36.5725541
  52.0445871  50.9169340  35.8822632  51.7443514  51.0366583  37.5054026
  50.3793716  51.5047741  36.4021826  53.1814146  54.8712397  38.4401894
  53.0144024  54.3152428  39.5192528  52.6808834  56.0429621  38.2279778
  52.7331161  56.3829947  37.2783685  51.8318701  56.8574095  39.1290212
  51.8796301  56.5904903  40.1847553  52.2501040  58.3469057  39.1657901
  51.9922209  58.8901424  38.2566762  51.6154766  59.0666914  40.3590536
  51.7967081  60.1186991  40.1387596  50.5307102  58.9605045  40.3695250
  52.0077467  58.7322712  41.3194656  53.7955904  58.5950518  39.2864799
  54.3455696  57.9999971  38.5574198  54.1303539  59.6312237  39.2376423
  54.1751909  58.2168865  40.2356911  50.3728342  56.7282009  38.7081695
  50.0523520  57.0147705  37.5560117  49.5108604  56.5305281  39.7031474
  49.7234821  56.4786911  40.6891537  48.0696964  56.2453032  39.3763852
  47.7596426  56.7197514  38.4453273  47.8051376  54.7285128  39.2923856
  48.3836031  54.3442249  40.1325083  46.7281818  54.5660067  39.2493463
  48.4141016  53.9348316  38.0652142  47.9413080  54.1612196  37.1095371
  49.4482183  54.2370319  37.8997517  48.3898115  52.0558405  38.3086848
  49.2161846  51.9299126  39.8718691  48.6019230  52.3382282  40.6744003
  49.2919254  50.8508444  40.0059557  50.2233648  52.3453999  39.9045014
  47.1260500  56.8500900  40.4397106  47.5185537  57.1412039  41.5968132
  45.9151030  57.2172308  40.0301027  45.7689238  57.1491575  39.0330553
  44.6964216  57.5056696  40.8237791  44.8211479  58.5642242  41.0518265
  43.4873581  57.3181105  39.8957372  43.6843777  57.9640102  39.0401101
  43.5023499  56.2937450  39.5235062  42.1392441  57.7146292  40.4616404
  42.0205069  58.2434273  41.5839720  41.1625528  57.6516581  39.7007561
  44.5836735  56.6113663  42.0201874  44.4667864  55.3768635  41.8777800
  44.6401310  57.1864462  43.2312775  44.9368048  58.1513929  43.2001591
  44.7603083  56.5781260  44.5839739  45.8176088  56.3789177  44.7587061
  44.3507051  57.6199532  45.6027651  44.9688578  58.5058022  45.4569578
  43.2924461  57.8716707  45.5332279  44.5614052  57.2111607  47.1076679
  43.9989376  56.3271570  47.4081135  46.0587311  56.8828678  47.4364328
  46.3917303  55.9207630  47.0471239  46.6553736  57.7843761  47.2971535
  46.2120914  56.8775272  48.5155725  44.1292477  58.2321024  48.1018114
  44.3847179  57.8375244  49.0852451  44.6494532  59.1739273  47.9272890
  43.0426502  58.2228041  48.0162907  43.8852072  55.3015995  44.7044754
  42.7964401  55.1883316  44.2704391  44.4668770  54.3684435  45.3994417
  45.3222084  54.6779871  45.8384085  43.9477921  53.0072308  45.7571316
  43.0004025  52.8137493  45.2540159  44.8874378  51.9404602  45.2985239
  45.8012772  51.9893789  45.8906364  44.4452477  50.9985447  45.6231213
  45.1159859  51.7534018  43.8341284  45.5190229  52.6964998  43.4650326
  46.1252785  50.6125402  43.4974861  46.2328815  50.7533360  42.4219894
  47.1289682  50.8063221  43.8758469  45.8643866  49.5916319  43.7763929
  43.7921333  51.4938831  43.1197357  43.1955957  50.6736374  43.5190439
  43.1806183  52.3951101  43.1637812  43.9121485  51.2237644  42.0705795
  43.6011028  52.8188848  47.1952772  44.3673277  53.2029581  48.0567884
  42.5263357  52.1213055  47.5307989  41.9824553  51.7300177  46.7750311
  42.1210432  51.7557049  48.8750648  42.2999382  52.5481701  49.6017694
  41.0426188  51.6116190  48.8091755  42.7266979  50.4086018  49.2987061
  43.8377666  50.1157284  48.8173532  42.1081400  49.6666574  50.2644539
  40.9739161  50.1393938  51.0978651  40.0759506  50.3940296  50.5349112
  41.2051678  51.0736418  51.6095400  40.5679607  49.1037893  52.0992470
  39.8621821  48.3631086  51.7232561  40.1208830  49.5381689  52.9934168
  41.9160032  48.4639931  52.3794317  41.8706751  47.4558306  52.7913284
  42.5291586  49.0439749  53.0691862  42.6428366  48.4887695  51.0230160
  43.7188244  48.6193323  51.1383581  42.3520851  47.1653795  50.2493191
  41.3919353  47.0446253  49.4774151  43.2759905  46.2265110  50.4551935
  44.0636301  46.5141630  51.0182047  43.4400892  45.0016260  49.6876049
  43.1462336  45.1852036  48.6541414  44.8640442  44.4112825  49.6916246
  45.3508377  44.5791960  50.6523180  44.8286915  43.3446360  49.4699955
  45.6439257  45.0693369  48.7616873  46.4607763  45.2797174  49.2200422
  42.4855566  43.9022779  50.2685595  42.3610020  43.7196970  51.4547491
  41.7459488  43.2138443  49.3741369  41.7876053  43.3588219  48.3754635
  40.6965876  42.2839022  49.7581387  40.0677919  42.7570009  50.5123949
  39.8399830  41.8513155  48.5238266  39.4570231  42.7548409  48.0493975
  40.5293131  41.3536072  47.8417635  38.5948753  41.0854816  48.8666582
  38.9440584  40.1693058  49.3428850  37.6448441  41.8740177  49.7134304
  37.4779010  42.8373861  49.2316008  36.6651011  41.4000797  49.7733116
  38.0158520  42.1168470  50.7091665  37.8350997  40.8307362  47.5062656
  37.5744939  41.7960310  47.0722246  38.5392404  40.5157471  46.7361593
  36.9850397  40.1725531  47.6859617  41.2025547  41.0668898  50.4867125
  40.5663300  40.5165195  51.3907957  42.4025059  40.6412697  50.2683067
  42.8271961  40.9947968  49.4228745  43.2738066  39.6829414  50.9857512
  42.7958775  38.7115932  51.1129093  44.5188332  39.4995975  50.0557852
  44.2753124  39.0062308  49.1148376  45.0096607  40.4488468  49.8410225
  45.6669283  38.7225795  50.6712389  46.4363575  38.6455727  49.9030304
  46.1856270  39.2769098  51.4533997  45.2608061  37.3057699  51.2105751
  44.5940351  36.5769863  50.4738283  45.8225489  36.8534279  52.1892023
  43.6038208  40.1090384  52.4855947  43.5501242  39.2955351  53.4041357
  44.0156507  41.3153028  52.7453089  44.1675043  42.0256281  52.0435333
  44.2531013  41.8524837  54.0935040  44.9304390  41.1790466  54.6186686
  44.9050665  43.2244635  53.9933825  44.1687822  43.9138222  53.5801411
  45.0904226  43.5908175  55.0030994  46.2858725  43.1454325  53.3819914
  46.9445133  42.0871687  53.3738089  46.6993093  44.2143250  52.8118992
  42.9331112  41.9688606  54.9014997  42.8230190  41.4359808  56.0475588
  41.8874645  42.6249313  54.3630123  41.9862747  43.1421041  53.5011148
  40.5287123  42.5680304  54.9281836  40.4433727  43.1009483  55.8751917
  39.5400763  43.2792807  53.9340258  39.5881844  42.7735233  52.9696655
  38.5053682  43.1425953  54.2483425  39.7779202  44.7752953  53.7450981
  40.8429480  44.9357176  53.5775328  39.0475893  45.1789904  52.5175762
  37.9695725  45.0665617  52.6330757  39.1391563  46.2275934  52.2344828
  39.4681263  44.6359730  51.6711807  39.1897082  45.6506634  54.9695301
  38.1781268  45.3841734  55.2757788  39.7823882  45.3751659  55.8418465
  39.2903256  46.7273760  54.8328781  40.0585938  41.1311388  55.1930761
  39.3255830  40.7497263  56.1109543  40.5110836  40.2110958  54.3357277
  40.9639311  40.4984188  53.4798765  40.1337194  38.8015461  54.4128418
  39.0675378  38.7583661  54.6353054  40.3847837  38.0328822  53.2030439
  39.8043513  38.4718156  52.3915386  41.4403057  38.0346966  52.9310608
  40.0577307  36.5761995  53.3893347  38.6506438  36.2156010  53.4854603
  37.8817272  36.9688272  53.5738993  38.2628512  34.8352551  53.4514427
  37.2316885  34.5230412  53.3764410  39.1658068  33.8408422  53.1152058
  38.8593674  32.8085852  53.0318546  40.5166817  34.1987300  53.0160284
  41.2308264  33.4221721  52.7850342  40.9737730  35.5055904  53.1761646
  42.0007658  35.7732296  52.9759979  40.7591581  38.0892539  55.5930567
  40.0960112  37.3307967  56.2592983  42.0821238  38.3327103  55.9294176
  42.5674009  38.9567876  55.3008270  42.7406931  37.8780389  57.0916462
  42.4952602  36.8287253  57.2553682  44.2797899  38.0842137  56.8536901
  44.4115162  37.3419237  56.0664463  44.5124912  39.0899396  56.5037394
  45.0264454  37.6933408  58.0854750  45.0690365  36.5596557  58.5643911
  45.6113338  38.6546779  58.6916637  46.1531544  38.4345865  59.5151281
  45.7316780  39.5744801  58.2921839  42.3079586  38.5579181  58.4169531
  42.2976494  37.9346299  59.4825554  41.8209839  39.7825623  58.3371019
  41.8383121  40.2892971  57.4635887  41.1098003  40.5526066  59.4739294
  41.8604183  40.4609108  60.2589512  40.8399677  41.9916916  59.0974283
  41.7923689  42.5185633  59.0387344  40.4790926  41.9154310  58.0717278
  39.7367883  42.7204990  60.0030947  39.8257279  42.6615667  61.4366150
  40.6211901  42.1460247  61.9541597  38.9160442  43.3500767  62.2247648
  38.9381957  43.3201694  63.3041239  37.8859186  44.1549635  61.6581726
  37.1612525  44.7132921  62.2322226  37.8760028  44.2568159  60.2552938
  37.1194696  44.8744154  59.7941732  38.8200045  43.6538076  59.4562292
  38.8254428  43.9094257  58.4069252  39.8353624  39.7415543  59.8218107
  39.6089435  39.4216847  61.0224581  39.0587354  39.2434359  58.8821077
  39.2103672  39.5330048  57.9264641  37.8679466  38.3575439  59.0936756
  37.2519135  38.6946440  59.9273252  36.9599891  38.5818648  57.8475571
  37.5001693  38.2170510  56.9739342  36.0621738  37.9707360  57.9400206
  36.3542056  40.2733469  57.8583908  37.4826550  40.9035540  57.5202417
  38.2271767  36.8525457  59.3333864  37.4359131  35.9497690  59.1865253
  39.4960904  36.5781713  59.6597528  40.1550198  37.3369074  59.7609091
  40.2135038  35.3813958  60.0560522  41.2396145  35.7456017  60.1066256
  39.8679852  34.8241901  61.4473534  38.8310528  34.5139599  61.5762949
  40.5362892  33.9797759  61.6159868  40.0290585  35.7627201  62.4208117
  40.9840584  35.8597732  62.4333191  40.1423931  34.2730308  59.0091944
  39.9331999  33.0845213  59.3068838  40.2193213  34.7485518  57.7590084
  40.1856709  35.7535553  57.6644802  40.2594137  33.9564300  56.5310526
  40.2127361  34.7074890  55.7424879  41.4769220  33.1008911  56.3686132
  41.4369392  32.3224211  57.1305132  41.4351368  32.6080942  55.3972721
  42.7070284  33.9947152  56.4314127  42.5072908  34.8456001  55.7801056
  42.8871489  34.2664528  57.4715137  43.8902521  33.2543254  55.9391260
  44.0350771  32.3255563  56.4909554  43.7096500  33.0419064  54.8853874
  45.1002836  34.1046095  56.1728859  45.6690168  33.9899397  56.9996214
  45.4572153  35.0041914  55.2389812  44.8269224  35.0926757  54.1117620
  44.1400146  34.4025397  53.8434935  45.1884699  35.6438828  53.3465481
  46.4389849  35.8567977  55.4849815  47.0134068  35.7501554  56.3088512
  46.6828966  36.6062140  54.8533249  38.9003515  33.2483220  56.2019730
  38.8843036  32.1942329  55.6689405  37.7592874  33.8733006  56.5364408
  37.8047037  34.7425628  57.0487165  36.4252162  33.3153749  56.1741543
  36.4976001  32.8368282  55.1975012  35.9911990  32.2792745  57.1991968
  36.7500901  31.5004015  57.1247435  36.0275936  32.6613832  58.2193756
  34.6113634  31.5859151  56.9543648  34.4962716  30.7832479  57.6827717
  33.8342047  32.3058915  57.2108173  34.4307733  31.0361743  55.5541611
  34.7643566  31.7116284  54.7663879  35.1844096  30.2620149  55.4098940
  33.0682039  30.6010032  55.2504683  32.4815345  31.2844825  54.7935438
  32.4131274  29.4550586  55.4788685  32.8779817  28.6201000  56.3037586
  33.8768196  28.6439586  56.4516020  32.4078369  27.7283478  56.3657475
  31.2337780  29.2484689  55.0069046  30.8794737  30.0211334  54.4614172
  30.6202197  28.4937620  55.2790594  35.5754590  34.5521474  56.0120249
  35.3475475  35.2516055  57.0133686  35.0603652  34.8245859  54.8626328
  35.3373122  34.2187238  54.1034651  33.8701248  35.6692410  54.5912695
  33.7914324  36.3065434  55.4720402  34.0661335  36.4379454  53.2610798
  34.2806816  35.7402062  52.4516153  33.0617666  36.8452764  53.1452036
  35.1183510  37.5263047  53.1294203  35.4235768  38.3282185  54.2801809
  35.0265718  38.1254745  55.2638912  36.4000750  39.3681049  54.0845442
  36.7901468  39.9506855  54.9060297  36.9091344  39.6460485  52.7486134
  37.5000596  40.5339146  52.5786114  36.5456247  38.9058685  51.6626501
  36.9243717  39.1501427  50.6811810  35.5756092  37.8881645  51.8288231
  35.1575279  37.3897529  50.9667349  32.5165439  34.8901892  54.5753956
  32.4603105  33.6462569  54.2018223  31.4034891  35.6555843  54.7249699
  31.4701533  36.6479850  54.9004602  30.0461316  35.2058864  54.3533325
  29.9452376  34.2025638  54.7671795  28.9532828  36.0821652  54.8842192
  28.0022502  35.6250381  54.6109486  29.0190768  36.1258101  56.3381720
  29.8742127  36.7124033  56.6739511  28.0944896  36.5633225  56.7147636
  29.1071296  35.0857615  56.6522503  28.8774562  37.3708105  54.3401814
  29.2872262  37.8098059  55.0891638  29.7858310  35.0755072  52.8909302
  30.3313208  35.8732414  52.0984411  28.8414884  34.1755605  52.5345564
  28.5023665  33.5493851  53.2507992  28.2917809  33.9852524  51.1927128
  29.1141343  33.6690450  50.5509567  27.2338629  32.8307486  51.1965227
  27.6209402  31.9274187  51.6679716  26.3352299  33.0601406  51.7691851
  26.7350578  32.4476242  49.7820711  26.0078478  31.6703057  50.0166702
  26.2915850  33.3215761  49.3049526  27.9141259  31.7029977  48.6016941
  28.0047417  30.1915765  49.5876408  28.4619164  30.3028512  50.5708551
  27.0996714  29.5843315  49.5735264  28.6448646  29.5362282  48.9969969
  27.7128911  35.3531599  50.7339621  27.8509927  35.6736636  49.6048450
  27.0293188  36.0892248  51.6381645  27.0437264  35.7783079  52.5990105
  26.4249063  37.3558259  51.3183689  25.7102108  37.1683645  50.5170107
  25.7283640  37.7875519  52.5726891  25.2399373  36.9194674  53.0153751
  26.4084768  38.1265235  53.3541250  24.6607065  38.8783145  52.5195360
  23.8448977  38.4942436  51.9071245  24.1200495  39.0468359  53.4508705
  25.1389408  40.2586222  52.0230532  26.0150146  40.4767609  52.6337957
  25.4183006  40.2790260  50.9696531  24.0369034  41.3243771  52.2994041
  24.0590787  42.1588182  51.5984631  23.0886841  40.8560276  52.0355368
  23.9315128  41.8535614  53.7160778  24.7495151  42.0263433  54.2827511
  23.4108615  42.7184820  53.7466049  23.3680606  41.2072229  54.2498064
  27.5012374  38.3054161  50.9178066  27.4143481  38.8608551  49.8351622
  28.4437203  38.6100149  51.8099785  28.5002041  38.1464934  52.7055550
  29.6258163  39.3861699  51.3989735  29.3333220  40.3849745  51.0750246
  30.6639647  39.5543313  52.4955940  30.7149577  38.6619329  53.1193924
  31.9495797  40.0948954  51.9548416  32.6919079  40.2472925  52.7383089
  32.3250628  39.3369102  51.2674046  31.7598891  40.9835386  51.3528061
  30.1771998  40.5493307  53.3503914  30.3560090  40.1624775  54.2106056
  30.2367187  38.8816595  50.0710201  30.3254175  39.6727538  49.1349411
  30.5523634  37.6041174  49.8977232  30.4047990  36.9017863  50.6083965
  31.2300038  37.0629501  48.6884928  32.2048235  37.5331640  48.5591650
  31.6492915  35.5024862  48.8431120  30.8002281  34.9319291  49.2194843
  32.3139930  34.7992086  47.6625443  31.5302825  34.4103694  47.0123911
  32.9602146  35.4837990  47.1131468  32.9823732  33.9648104  47.8750277
  32.7724648  35.4997778  49.8543882  32.3959756  36.0802484  50.6966543
  33.0198503  34.5176721  50.2573395  33.6722970  35.8937359  49.3819427
  30.4565525  37.3240232  47.3410416  31.0233760  37.9642200  46.4431095
  29.1916275  36.8646002  47.2490835  28.8002968  36.3218856  48.0056715
  28.4142733  36.9760394  45.9646368  29.0428519  36.7099690  45.1148176
  27.1380305  36.1329412  46.1229801  26.5534449  36.4677310  46.9798756
  26.3565421  36.4146543  45.4172754  27.4337530  34.6495485  46.2477589
  27.9633546  34.4313407  47.1751261  26.0062194  33.9915085  46.2536860
  25.5350280  34.1801953  45.2890730  26.1215806  32.9206872  46.4214134
  25.3083062  34.3984985  46.9853783  28.2446837  34.1392493  45.0989771
  27.8847265  34.5311093  44.1476774  29.3011618  34.3668795  45.2409172
  28.2008219  33.0551267  45.2031660  28.1460047  38.4090662  45.5512381
  28.1243467  38.7818050  44.3883848  27.9172540  39.3225288  46.4799023
  27.9760551  39.0198088  47.4416733  27.6601696  40.8038282  46.3143253
  26.8564534  40.9237099  45.5878496  27.3098397  41.3077211  47.7179241
  26.4701843  40.7000685  48.0553150  28.1242633  41.1213493  48.4179831
  26.8926764  42.7981424  47.9227638  27.7078819  43.5206890  47.8844213
  26.3006711  43.0963039  47.0574713  25.8221173  43.0979252  49.2649746
  26.9447112  42.9769659  50.7449675  26.3708425  43.0645418  51.6675186
  27.5345635  42.0682669  50.6247902  27.6702070  43.7843275  50.8445787
  28.9531517  41.4406347  45.8094072  28.8459015  42.3554659  45.0224924
  30.1314497  40.9133148  46.2202263  30.0796723  40.2027035  46.9360828
  31.4228010  41.3495922  45.6253529  31.3182831  42.4157286  45.4240131
  32.5325823  41.0401726  46.5536642  32.3676944  40.0186777  46.8963909
  33.4534645  41.0983992  45.9734154  32.5632668  41.8231487  47.8705406
  31.6177011  41.9044733  48.4066296  33.6080217  41.3160181  48.8363647
  34.6323061  41.5576077  48.5524988  33.4273434  41.6790009  49.8481464
  33.5664010  40.2269602  48.8544846  33.1065679  43.2658195  47.5348377
  34.1437721  43.2218647  47.2026014  32.5472999  43.6242247  46.6706276
  33.0652857  43.9098644  48.4132481  31.6050911  40.7726908  44.2382717
  31.9377851  41.5652466  43.3428192  31.2927461  39.4942808  44.0391302
  31.1737847  38.9475465  44.8799801  31.5222168  38.7169814  42.8079557
  32.5796413  38.7743258  42.5497532  31.1088610  37.2673345  43.0252075
  31.5951204  36.6744089  42.2505522  31.4377737  36.9523835  44.0155220
  30.0348020  37.0892143  42.9725933  30.7621598  39.1702294  41.5677118
  31.2898803  39.0210128  40.4526615  29.6356177  39.9648619  41.6968822
  29.1363454  40.0545406  42.5702572  29.1260958  40.7452536  40.5677748
  28.8301158  40.0167847  39.8129058  27.8341722  41.4710760  41.1209536
  27.4675417  40.8457327  41.9349718  28.1126308  42.4231100  41.5728331
  26.6607213  41.6723108  40.1113749  25.7011724  42.3787355  40.5322170
  26.6178322  41.0670090  39.0138793  30.1504493  41.7994070  39.9869227
  30.3689051  41.8985367  38.7385631  30.8786774  42.5763464  40.8726692
  30.7306504  42.4941540  41.8683767  31.8883753  43.5797882  40.4558706
  31.5869546  44.2416716  39.6439838  32.2569370  44.5493317  41.6333246
  32.7903700  43.9327765  42.3567963  32.9118681  45.3326082  41.2516832
  31.0813951  45.2671242  42.2348309  30.5763388  45.8758736  41.4848709
  30.4155064  44.5303822  42.6841736  31.4794326  46.2307167  43.4077883
  31.9344163  47.3777056  43.1445742  31.4551377  45.8028841  44.6436787
  31.6911411  46.5192413  45.3154182  31.0718536  44.9069405  44.9091530
  33.1261826  42.9298210  39.9417019  33.7254047  43.4315872  39.0052390
  33.4553194  41.7693138  40.4510784  32.9936767  41.3756418  41.2585497
  34.4666624  40.9223461  39.9109149  35.4134488  41.4573050  39.9851894
  34.8445201  39.6817040  40.7018948  34.0132952  38.9795899  40.7666826
  35.6476903  39.2007446  40.1435947  35.3225422  40.0685978  42.1816206
  36.1870551  40.7267666  42.0948315  34.5433688  40.6277704  42.6996231
  35.4672909  38.6840224  43.4173250  36.1025405  39.6543193  44.8625422
  36.1971331  38.9872169  45.7193565  37.0824671  40.0272799  44.5646429
  35.4715276  40.5227804  45.0515032  34.2512202  40.5285788  38.4520483
  35.1615071  40.7999182  37.6415277  33.0304050  40.0871658  38.0876184
  32.3931170  39.8473883  38.8335943  32.7136207  39.8079896  36.6435361
  33.5305524  39.2396355  36.1988997  31.3667297  39.1889644  36.2953615
  30.5692315  39.8120999  36.7000818  31.1131144  39.0902734  34.7574043
  30.8855486  40.0638533  34.3232775  32.0043731  38.7190628  34.2514801
  30.2818608  38.4101748  34.5714474  31.1398840  37.7777600  36.9568539
  31.9082713  37.0531821  36.6872835  31.2938952  37.9793239  38.0169320
  29.6854186  37.2244573  36.8449903  29.4566607  36.8650246  35.8417058
  29.7080231  36.3774991  37.5307393  29.0194821  38.0341768  37.1432853
  32.7164578  41.2395525  36.0036874  33.2140398  41.3046503  34.8505354
  32.2035670  42.3412275  36.5938044  31.8058920  42.2857761  37.5205660
  32.0863605  43.5983467  35.8219600  31.6100430  43.2934952  34.8901415
  31.1704087  44.6059990  36.5362000  31.6136932  45.0493526  37.4278450
  30.9432006  45.4058218  35.8313894  30.0415182  44.0107012  36.9292474
  29.7705531  44.3977499  37.7649355  33.4911299  44.2106199  35.4462981
  33.5264540  44.8308897  34.3668747  34.4766784  44.0525484  36.3335896
  34.2015409  43.5486746  37.1645594  35.8414483  44.5038939  35.9278011
  35.7581758  45.5005217  35.4943275  36.7232227  44.4758987  37.1776223
  36.7483544  43.4443855  37.5289798  37.7481556  44.7499037  36.9275403
  36.3989115  45.3506994  38.3549714  35.4452348  45.0682116  38.8008428
  37.2649860  45.2685499  39.0116787  36.3500786  46.8686008  37.9920244
  36.5706491  47.3058748  38.9657998  37.0891809  47.1786499  37.2533059
  35.0521374  47.3155975  37.5081325  34.8596120  47.3117924  36.5166593
  33.9851189  47.6650906  38.2304478  33.9527702  47.8569746  39.5072985
  34.7943068  47.6865482  40.0391531  33.0963659  47.8729916  40.0424767
  32.8610229  47.8528357  37.6417041  32.9054046  47.7123880  36.6425014
  32.0498967  48.1311941  38.1752682  36.4004040  43.5891056  34.8195004
  36.8550491  44.0512419  33.7558174  36.3842058  42.2630644  34.9695706
  35.9293747  41.8265963  35.7587004  36.9074464  41.3766575  33.9293242
  37.9007268  41.7957115  33.7684107  37.2595525  39.9467349  34.5037556
  37.8565574  39.4879007  33.7156200  38.1980634  39.9523091  35.7753444
  39.1220546  40.3889132  35.3962421  37.8431201  40.4800272  36.6605759
  38.3478427  38.9531517  36.1844349  36.0632086  39.0201998  34.4924378
  35.2281570  39.5268917  34.9762249  35.6989050  38.8582230  33.4779692
  36.2454343  37.6324153  35.1047921  35.3518271  37.0275211  34.9509335
  36.9656324  37.0216846  34.5603442  36.4089108  37.7847123  36.1716509
  36.1530042  41.3884258  32.6262522  36.7837977  41.3204527  31.5901732
  34.8231697  41.7143726  32.6641846  34.3427157  41.7192411  33.5525775
  34.0484929  41.8607426  31.4220357  34.2244291  41.0351276  30.7324624
  32.6224136  41.8532038  31.7399693  32.4154973  40.9752226  32.3518753
  32.3364305  42.6334476  32.4453354  31.6015553  41.9089985  30.5721235
  31.8829751  42.7290583  29.9115157  31.5321422  40.9529066  30.0533056
  30.1755786  42.1110392  31.0800481  29.8461366  42.1082592  32.3023701
  29.2559171  42.2165918  30.2617264  34.3443036  43.1157446  30.6229186
  34.3381238  42.9958725  29.3664360  34.8961473  44.1451740  31.2441421
  34.8000312  44.1974115  32.2481990  35.5182958  45.3097200  30.5809402
  34.8549199  45.7256031  29.8226047  35.7424879  46.3865423  31.6262937
  34.7758842  46.5058994  32.1157169  36.4198828  45.9418154  32.3553038
  36.2835670  47.6531506  31.1380506  35.7212186  48.2585526  30.0093269
  34.9084616  47.7503777  29.5117497  36.2417412  49.4541073  29.3693590
  35.7728410  49.7969198  28.4588575  37.3441362  50.1017380  30.0377321
  37.8085232  51.2599707  29.5789218  38.5571909  51.5533590  30.1033497
  37.8736758  49.4849920  31.1838222  38.7357450  49.8829556  31.6984701
  37.3678327  48.3079100  31.7384386  37.7876449  47.9386282  32.6624513
  36.7904449  44.8256445  29.8801589  37.1100950  45.0962400  28.7519550
  37.7863908  44.2367268  30.6022501  37.5705791  44.0370560  31.5685105
  38.9635444  43.6182070  29.9514771  39.6018648  44.3222857  29.4176888
  39.7485542  42.7871466  31.1219621  39.0540552  42.0852947  31.5836763
  40.9384298  42.0358324  30.6037569  40.6229019  41.2981033  29.8659921
  41.5755272  42.7404308  30.0692058  41.4848471  41.6511011  31.4648676
  40.2369499  43.7699890  32.1321201  40.9360456  44.5039988  31.7313695
  39.3399358  44.1640997  32.6097679  40.8558655  43.2646894  32.8735495
  38.6413550  42.6740456  28.8029528  39.1873288  42.8020954  27.6937962
  37.6000047  41.8089199  28.9694309  37.1734715  41.6680574  29.8740458
  37.1406317  41.0193682  27.8506660  38.0218601  40.5958366  27.3688436
  36.3101387  39.8837519  28.4460235  35.3276229  40.2600193  28.7309527
  36.0969353  39.2044449  27.6206851  36.9577193  39.0039444  29.4722176
  36.2541127  38.2249665  30.4387593  37.2948861  37.6001620  31.0428667
  37.1845007  36.8332648  31.7952538  38.4973168  37.9517126  30.5759311
  39.4100595  37.6531935  30.8888030  38.2807851  38.7831092  29.5187736
  39.0593839  39.2810798  28.9600134  36.4834094  41.8784046  26.7483449
  36.5420294  41.4069796  25.5955863  35.8828974  42.9805946  27.0207667
  35.8730531  43.3364439  27.9659534  35.3561926  43.8878059  25.9038854
  34.7547913  43.2727194  25.2344942  34.5147943  44.9084902  26.6013432
  35.1146984  45.4711342  27.3166370  33.7750125  45.8450460  25.6416035
  33.2030106  45.3680897  24.8457217  33.0935168  46.4727545  26.2157488
  34.4647837  46.5402269  25.1630163  33.4377575  44.3148613  27.3455071
  33.8135099  43.9278746  28.1396437  36.5603757  44.6174955  25.1595640
  36.6429782  44.5587349  23.9423728  37.5172710  45.1560640  25.9180117
  37.3915911  45.1081085  26.9190168  38.7089896  45.8549738  25.3775120
  38.4153414  46.4463854  24.5102715  39.2216706  46.9001245  26.4081526
  39.4933486  46.4155388  27.3459530  40.1424646  47.4036932  26.1137724
  38.2310224  47.9943371  26.7511201  37.4649119  47.9626179  25.9764123
  37.8430605  47.8261566  27.7557611  38.7308145  49.4403172  26.7716050
  37.9805374  50.1270247  27.1635604  39.6334410  49.6839190  27.3319817
  38.9995861  49.8497486  25.2920413  39.9112558  49.3619585  24.9470401
  38.1910586  49.5287943  24.6352530  39.0769553  51.3228178  25.0779843
  39.1799426  51.5656137  24.1030264  38.3017874  51.8840218  25.4008842
  39.8798823  51.8077421  25.4524946  39.8486328  44.8800468  24.9168992
  40.9904289  45.3640652  24.8311019  39.5381236  43.6416912  24.5337319
  38.5448647  43.4620762  24.4980240  40.4284334  42.7409267  23.7739396
  39.8117828  41.8855333  23.4979796  40.8457661  43.4238148  22.4603271
  41.6211987  44.1665697  22.6477313  41.3403034  42.6954508  21.8176627
  39.6903610  44.0723515  21.6655278  38.6712885  43.4881163  21.4405179
  39.9759269  45.2092361  21.0996318  39.3174529  45.5239773  20.4014564
  40.9403229  45.4910231  21.2027836  41.6290665  42.0464706  24.4383121
  42.4585295  41.4601469  23.7483788  41.6505098  42.0265484  25.7996058
  40.8767557  42.4866867  26.2575221  42.6784372  41.3461781  26.5475774
  43.2636690  40.7718801  25.8293867  43.5423565  42.4211121  27.2253752
  42.9961872  43.1003380  27.8799319  44.2492676  41.8513870  27.8285265
  44.4804621  43.2441378  26.3053179  44.0857458  44.2941332  25.4477477
  43.0322790  44.4452715  25.2640009  44.9665642  44.8268223  24.5158482
  44.6619558  45.5533457  23.7770796  46.3184834  44.5348549  24.6480966
  47.0117569  45.0336695  23.9870715  46.7322826  43.5232973  25.5658841
  47.7259588  43.1145191  25.6750035  45.8274031  42.9306889  26.3755655
  46.2055111  42.1066856  26.9624662  42.0799685  40.2774429  27.4705911
  40.8476543  40.1599836  27.6319671  43.0029488  39.4475079  28.0824828
  43.9748335  39.4154239  27.8095126  42.7292013  38.4383321  29.1080165
  41.7952585  38.6853504  29.6128273  42.5620842  37.0283532  28.5322452
  42.6551294  36.3407183  29.3728423  41.2292862  36.7777181  27.8217864
  41.2079000  37.1773791  26.8079257  41.0569143  35.7036018  27.7535129
  40.4136038  37.1649313  28.4323859  43.6282063  36.6624403  27.5085616
  43.6638021  37.4253964  26.7309213  44.6195173  36.7939639  27.9422784
  43.4662724  35.3211355  26.8184543  43.3106661  34.4876575  27.5034356
  42.6874876  35.3177691  26.0558367  44.3770027  35.1388645  26.2479734
  43.9182901  38.4347486  30.1026511  45.0315332  38.7477827  29.7155499
  43.6624479  38.1673002  31.3812852  42.7799845  37.7741528  31.6758895
  44.5368814  38.4146428  32.5134182  45.1137590  39.3067408  32.2695327
  43.5674620  38.6313725  33.7194562  42.6834869  39.1727948  33.3824825
  43.3115292  37.6807284  34.1872978  44.3238878  39.3405485  34.8025465
  45.4904842  38.8335395  35.3817391  45.8008623  39.6725869  36.3970685
  46.7038298  39.4909501  36.9610333  44.8832703  40.6622028  36.5231252
  45.0172806  41.5561533  36.9736814  43.9770365  40.4364109  35.4451776
  43.1806517  41.1192703  35.1885176  45.4829216  37.2456741  32.8085637
  46.6871929  37.3955297  33.0357146  44.8741579  36.0552287  32.8859282
  43.8750362  36.1119294  32.7493882  45.5188227  34.7568083  33.1073952
  44.8715448  33.8938212  32.9512382  46.7604113  34.5299983  32.1281743
  47.4778891  35.3067255  32.3927832  47.2035742  33.5637426  32.3691130
  46.3930607  34.6320510  30.6229448  45.4760599  34.0557837  30.4999566
  46.1945391  35.6726742  30.3664351  47.5177670  34.1352868  29.5963621
  47.8666401  33.1458783  29.8921084  47.1009541  34.1254187  28.5892534
  48.6234665  35.0959373  29.6335769  48.7018108  35.8832884  30.2613068
  49.7737789  34.8343825  29.0670252  49.9746227  33.8845706  28.3160186
  49.3182278  33.1225443  28.2234907  50.8616734  33.8242650  27.8368402
  50.7631540  35.6714988  29.2067862  50.5846071  36.5711737  29.6296430
  51.6103983  35.4480410  28.7044454  45.8482265  34.5339966  34.6131444
  46.0346222  33.3924079  34.9946141  46.0381317  35.6112194  35.4272032
  45.8773041  36.5202093  35.0173569  46.7526913  35.6564951  36.7569447
  46.8028402  34.6751881  37.2287774  48.1846952  36.1261582  36.5839124
  48.5251331  35.5059600  35.7547235  48.2460594  37.1849751  36.3324189
  49.1221380  35.8922958  37.8014827  48.9574671  34.8840928  38.5192275
  50.0220633  36.7210555  38.0606532  46.0358000  36.5359926  37.7806664
  46.6211510  37.2965288  38.5627508  44.6936560  36.4085317  37.8424406
  44.2963886  35.9914374  37.0127916  43.7168026  36.9936371  38.7818980
  43.8749743  38.0386782  39.0483165  42.2607660  36.9983983  38.2768250
  41.9860840  35.9706211  38.0394936  41.3234806  37.5537753  39.3318033
  41.6134214  38.5541606  39.6531582  40.3128290  37.6053953  38.9268136
  41.2816143  36.8481159  40.1615000  42.1477604  37.7557921  36.9812298
  42.1963882  38.8301325  37.1587873  43.0458975  37.5908875  36.3860297
  40.9164000  37.3321152  36.0686040  40.6851149  37.9674101  35.2136135
  41.1511898  36.3302612  35.7090807  39.9894381  37.4505544  36.6296959
  43.8601732  36.2075615  40.0641012  43.1675625  35.1840687  40.2381277
  44.6916580  36.5805578  40.9969234  45.2701712  37.3800635  40.7819462
  44.7340822  36.2010312  42.4001741  44.4746447  35.1604962  42.5953054
  46.1360264  36.4560962  42.9552507  46.1843872  37.5438142  43.0066061
  46.2513256  36.0206246  43.9478111  47.2736740  35.9437609  42.0228767
  47.4709415  34.8815346  42.1673155  47.0208645  35.8993506  40.9635305
  48.5891104  36.6617608  42.2593689  48.8430262  36.5869689  43.3167362
  49.4443417  36.1352181  41.8357658  48.5353994  38.1567812  41.8348217
  47.5880671  38.5847306  42.1627235  49.3425655  38.6428952  42.3827982
  48.6057043  38.2642531  40.3675652  49.3055153  37.7004933  39.9065447
  47.7312660  38.0347252  39.9172592  48.7153387  39.2366052  40.1173162
  43.6113071  37.0350480  43.1443071  43.0100727  37.9224706  42.6000643
  43.3925486  36.6201329  44.4249582  43.8680029  35.4227972  45.0904417
  44.8671532  35.5339646  45.5116749  43.7759399  34.5438266  44.4524527
  42.9389191  35.2799892  46.2460470  43.4367990  34.6983671  47.0218897
  41.9801426  34.8232198  46.0006618  42.8026676  36.7564583  46.6838455
  43.7343788  37.0816922  47.1466970  41.9959021  36.9419122  47.3929596
  42.6753759  37.4748588  45.3476858  41.6245556  37.5821257  45.0786638
  43.2175255  38.8996720  45.3697586  42.5201273  39.9167418  45.3852415
  44.5545053  39.0234089  45.2986050  45.1285839  38.1946635  45.2376413
  45.4177523  40.2230263  45.4245663  45.2144718  40.7732868  46.3432598
  46.9727802  39.8289657  45.4456568  47.1916628  39.4406605  44.4509649
  47.5353432  40.7444191  45.6289053  47.3598576  38.7555838  46.4582825
  46.6032839  37.7763653  46.6000509  48.3361959  38.9152598  47.2017097
  45.1802826  41.2703419  44.3088150  45.6426144  42.4109602  44.4500685
  44.4139528  40.8871078  43.2447100  44.2234898  39.9124146  43.0608606
  44.0317631  41.7248917  42.1342373  44.7987604  42.4716425  41.9288635
  43.9456797  40.8415365  40.8790684  43.3368111  39.9821854  41.1599541
  43.3925962  41.4665556  40.1779604  45.3230715  40.2306032  40.5057907
  45.7849789  39.2407393  41.0614634  46.0318136  40.6693792  39.5038509
  46.9746017  40.3073025  39.5160413  45.6949997  41.2702036  38.7651515
  42.6515722  42.4916124  42.2908783  42.4620008  43.4630156  41.5668678
  41.8869305  42.1830702  43.2754087  42.1024656  41.3841724  43.8545513
  40.7035923  42.7576685  43.7738276  40.2577353  43.3578491  42.9806709
  39.6423912  41.6644621  43.8558435  40.0463867  40.9123659  44.5335197
  38.6925459  41.9870710  44.2822456  39.2489338  41.0261726  42.5026655
  38.7246656  41.8304300  41.4456797  38.7245059  42.9028034  41.5738153
  38.3273506  41.3080835  40.1586056  37.9752302  41.9081402  39.3325663
  38.4183097  39.8902035  40.0346661  38.0844569  39.3755555  39.1457987
  38.9086652  39.0880322  41.1227798  39.0646219  38.0310702  40.9649515
  39.3188739  39.6069479  42.3380899  39.6663976  39.0186477  43.1744719
  40.8397722  43.5591650  45.0876284  41.3397360  43.1735039  46.1220837
  40.4378510  44.8175097  45.0177383  40.0827265  45.1663113  44.1389227
  40.7298040  45.8833408  45.9851265  40.9139204  45.4381275  46.9628716
  42.0857763  46.4204025  45.4531384  42.7438450  45.5518055  45.4772806
  42.0351887  46.7079639  44.4029713  42.6203251  47.6317024  46.2757301
  42.2009516  47.6063395  47.2815037  44.0900326  47.3644781  46.3630915
  44.5812750  48.2421970  46.7830849  44.3588972  46.5044260  46.9763803
  44.5899153  47.2120810  45.4065371  42.4689007  49.0082455  45.6116819
  41.4456511  49.2638111  45.3364563  43.0109262  49.7169399  46.2378216
  42.9650593  48.8297653  44.6577024  39.6529627  46.9529343  46.1380100
  39.0721917  47.3562527  45.1187372  39.4214916  47.5060177  47.3395109
  39.9970865  47.1379280  48.0833530  38.2726717  48.4345436  47.6607370
  37.4749207  48.1911516  46.9589853  37.7871728  48.3927441  49.0812731
  38.5242152  48.9227295  49.6845913  36.8469644  48.9412308  49.1384649
  37.5499320  47.0282364  49.6687841  38.5615087  46.6476154  49.8099947
  37.0174527  47.0693779  50.6189775  36.6118336  45.9625435  48.7140179
  35.0312829  46.7793798  48.5726881  34.3282866  46.0507870  48.1688881
  34.5435834  47.0285559  49.5151091  35.1684070  47.6010799  47.8697538
  38.5518932  49.9599552  47.2919941  39.6087766  50.2151728  46.8016005
  37.6826811  50.9662390  47.5359964  36.8459034  50.6166267  47.9806042
  37.8467727  52.3853540  47.3516560  38.7924767  52.6209879  46.8635750
  37.0299435  52.7483225  46.7278385  37.8538799  53.2366419  48.6260462
  38.2028365  52.7201271  49.6904421  37.5968981  54.5456505  48.4635162
  37.2311950  54.7483444  47.5441217  37.9819298  55.6800318  49.3708897
  38.2568479  55.3002453  50.3549051  39.2490530  56.4053106  48.7204313
  39.0649581  56.6239023  47.6685572  39.5076537  57.7441835  49.4392681
  38.7114644  58.4467840  49.1932297  39.5313978  57.5808954  50.5167103
  40.4606438  58.1540203  49.1046906  40.5633450  55.5596399  48.8585234
  40.3579760  54.6500969  48.2940292  41.3004589  56.0195732  48.2003260
  41.2411928  55.3555679  50.2140856  42.1234274  54.7179747  50.1571655
  41.6254807  56.3509369  50.4369450  40.5931425  55.0461912  51.0341024
  36.8207741  56.6431284  49.4365311  36.1331820  56.9550133  48.4439135
  36.5183353  57.0938015  50.6315374  37.1296573  56.8042088  51.3815498
  35.5092287  58.0838871  50.9144402  35.4714608  58.0498028  52.0032501
  35.7841754  59.0749264  50.5534029  34.1337109  57.7246571  50.3530931
  33.5975838  56.6695642  50.5748749  33.7440443  58.6183357  49.4291973
  34.2730927  59.4619417  49.2602587  32.4892116  58.5668802  48.5987473
  31.6208172  58.7141657  49.2408562  32.5145507  59.7018528  47.5389338
  33.1130624  60.5512571  47.8681707  33.0726242  59.1295719  46.7978811
  31.1358333  60.0943279  46.9074631  31.3067865  60.6441259  45.9819317
  30.5073428  59.2115116  46.7902899  30.3826880  61.1107206  47.6902676
  29.4026279  61.1050558  47.2132492  30.1844215  60.8697796  48.7346506
  30.8420420  62.5103712  47.4454069  31.2231302  62.6401901  46.5191126
  31.1330771  63.4336090  48.3667898  30.7449555  63.2374430  49.5934534
  30.1160383  62.4778223  49.8115015  30.6588101  63.9777517  50.2750874
  31.7285180  64.5144176  48.0853033  31.8087888  64.8148060  47.1243525
  32.1517444  65.0888300  48.8001633  32.1917152  57.2159004  47.9235792
  31.0696435  56.6840935  47.9339123  33.2595062  56.6117048  47.3510313
  34.1122198  57.1525383  47.3290968  33.3137059  55.2801085  46.5693808
  32.2677445  55.1528978  46.2902975  33.9987516  55.5412436  45.1751328
  35.0209641  55.8750772  45.3532791  33.9838409  54.5963955  44.6318674
  33.2012105  56.6558790  44.5024204  31.8496847  56.4712715  44.0642262
  31.4552903  57.6984549  43.6369753  30.4616594  57.9748344  43.3164930
  32.4459362  58.6034966  43.9085102  32.3645759  59.5833349  43.6774254
  33.5535884  57.9722643  44.3476629  34.4807601  58.3648062  44.7383881
  33.7484264  54.0475988  47.3995447  34.2024827  53.0812740  46.8637228
  33.6512518  54.1597176  48.7116337  33.2441187  55.0074816  49.0799236
  34.1603947  53.1161356  49.5660830  35.2378964  53.2104206  49.4311714
  33.7029624  53.4027100  50.9842920  33.9832592  54.4430065  51.1495638
  32.6189995  53.3321476  50.8940220  34.3570375  52.1600819  52.0562840
  35.5907106  52.6549482  52.1906614  33.8288283  51.6875696  49.1552353
  34.6588445  50.8101368  49.3241835  32.6204753  51.4051008  48.7097406
  32.0349360  52.1714878  48.4099054  32.1314859  50.0763607  48.4666681
  32.6390553  49.3765688  49.1305780  30.6227231  50.0293875  48.8268900
  30.0479031  50.6006718  48.0979776  30.3189945  48.9825678  48.8231516
  30.3540921  50.6005526  50.2225733  30.4648805  49.9283457  51.1991787
  29.9705720  51.8173981  50.3222847  29.9639058  52.2585630  51.2308168
  30.0083113  52.3322964  49.4542122  32.3807073  49.5951605  47.0443439
  31.9393611  48.4626293  46.7198801  33.1095314  50.3787041  46.2505627
  33.3943868  51.2736130  46.6221857  33.4882975  50.0024986  44.9433374
  32.6335645  49.5087576  44.4810009  33.8453221  51.3806105  44.2869949
  33.1872940  52.2085762  44.5507526  34.9025202  51.5360165  44.5021296
  33.7048197  51.2241125  42.7229548  34.4254422  50.4816437  42.3801088
  32.7506280  50.7887030  42.4262428  33.9336896  52.4564028  41.8517447
  34.8964071  52.9240322  42.0581436  33.8834071  52.1259451  40.8142614
  32.8588653  53.4571934  42.1003342  31.9249010  53.0142736  41.7544508
  32.8925419  53.6688375  43.1690550  33.1707454  54.6500301  41.3569784
  34.0542579  54.9703503  41.7269850  33.3571124  54.3753481  40.4030848
  32.4265766  55.3234673  41.2438583  34.6407127  49.0382576  44.9257040
  35.5975890  49.2239141  45.6685495  34.6307468  48.0742884  44.0385103
  33.7508941  48.0160522  43.5459948  35.6702542  46.9987249  43.8011217
  36.3316298  47.0977020  44.6618652  35.0333261  45.6262207  43.8591242
  34.1485333  45.5693960  44.4931746  34.6751595  45.3767586  42.8603363
  36.0689449  44.6128511  44.3150568  36.9642019  44.7679806  43.7129354
  36.4600801  44.6761751  45.8443069  35.6197572  44.9972200  46.4598465
  36.8394423  43.7203455  46.2056637  37.2819090  45.3886747  45.9153986
  35.5994582  43.2037497  44.0568495  35.2241373  43.1768751  43.0338573
  36.4511943  42.5268555  43.9900827  34.7029662  43.0054426  44.6442842
  36.4482737  47.0965052  42.5344372  35.9490108  46.8700933  41.3754892
  37.6913953  47.4753046  42.6345921  38.0530787  47.5972939  43.5696888
  38.7190795  47.6060772  41.6071510  38.2226419  48.0496502  40.7440805
  39.7402382  48.6777163  42.0754576  40.1334000  48.3298111  43.0307007
  40.5635405  48.7614059  41.3660431  39.1634011  50.0813389  42.3528099
  38.2397199  50.3089237  43.3929825  37.8361797  49.4941902  43.9758778
  37.7756953  51.6076660  43.7180614  37.0207500  51.6748238  44.4874477
  38.1508923  52.7036428  42.9706669  37.7794528  53.6888599  43.2110405
  39.0274525  52.4538040  41.8636179  39.3496466  53.3009291  41.2762690
  39.5114875  51.1845207  41.5288019  40.2017403  51.0651875  40.7067871
  39.4197059  46.3751745  41.1465359  39.5339131  45.4269361  41.9339657
  40.0473309  46.5007305  39.9550962  39.9730873  47.3771143  39.4585657
  40.9453392  45.4819965  39.2823339  41.2376595  44.7005033  39.9837041
  40.2373981  44.6906137  38.1628323  39.4526792  44.0604687  38.5814428
  39.8364091  45.4112864  37.4501348  41.1375999  43.6760569  37.4511528
  41.9733095  44.2428255  37.0407104  41.6515541  42.6058531  38.3479452
  42.5530386  43.0387211  38.7815928  40.9151077  42.4439383  39.1350484
  41.8404675  41.7083263  37.7590084  40.2867508  43.1469822  36.3205171
  39.9454927  43.9744329  35.6984472  40.9624052  42.5369120  35.7210088
  39.3914580  42.6683044  36.7172933  42.2866297  46.1151743  38.8446450
  42.3710918  47.1519375  38.2332015  43.3696413  45.4864597  39.3122911
  43.1540489  44.6090603  39.7637248  44.7637177  45.9131098  39.2536092
  44.9691200  46.5478992  38.3916593  45.0829411  46.6667604  40.5847836
  46.1602688  46.8238115  40.5318117  44.4120455  48.0626822  40.8197498
  44.7277927  48.4943199  41.7695379  44.6589613  48.7760115  40.0334263
  43.3270502  47.9598045  40.8022213  44.9593306  45.8025408  41.8830776
  43.9106226  45.8158207  42.1799660  45.3652811  44.8141289  41.6677999
  45.8175468  46.3383532  43.0596447  45.5199957  47.3575401  43.3062553
  45.5984831  45.7739115  43.9660215  46.8606806  46.2775421  42.7493715
  45.6913042  44.6944904  39.0587997  45.1716518  43.5387421  39.0024948
  46.9546509  44.9238682  38.8432145  47.2050428  45.9022474  38.8564825
  48.0542088  43.9115572  38.6488724  48.9750099  44.4360256  38.3936286
  48.3786392  43.1629038  39.9672532  48.5804844  43.8980484  40.7463074
  47.4826574  42.5982714  40.2251577  49.5541573  42.2027159  39.9040699
  49.2808199  40.9941912  40.2453279  50.6502628  42.6024485  39.4292617
  47.9210329  42.9814100  37.4293256  47.5780964  41.7808342  37.5494528
  48.1076097  43.5437536  36.2164927  48.4318304  44.4988775  36.2686276
  48.0074120  42.8752661  34.9039721  47.4852419  41.9291925  35.0467658
  47.3976564  43.7606907  33.8152361  48.0021524  44.6130276  33.5050654
  47.4291515  43.1407022  32.9192877  46.0650253  44.1950417  34.0465903
  45.7769728  45.4989481  34.6013784  46.5978193  46.1736107  34.7948766
  44.4596529  45.9059429  34.7433829  44.2711878  46.8576670  35.2178454
  43.4002161  45.0197029  34.4324732  42.3795319  45.2947521  34.6537304
  43.6630058  43.7115335  34.0353799  42.8498793  43.0136251  33.9006519
  44.9846029  43.2867432  33.8039136  45.0723362  42.2681761  33.4557319
  49.4228029  42.3972225  34.5169640  49.8962021  42.6645088  33.4280849
  50.1596260  41.6971636  35.4345345  49.5430946  41.3658857  36.1627173
  51.5660954  41.2196541  35.3047967  52.3236322  41.9773865  35.1045871
  51.8600941  40.7939100  36.2641764  51.8196630  40.0494909  34.2936325
  52.9943419  39.9484611  33.9510846  50.8572340  39.4123960  33.7809205
  49.9144793  39.6768618  34.0286613  50.9802914  38.4404826  32.6336884
  51.9766998  38.6171627  32.2286510  50.8465576  37.0622444  33.2979059
  49.9003410  37.0338821  33.8382506  50.7460022  36.2786460  32.5469303
  52.0339251  36.5713716  34.0873170  52.4228668  37.2719216  34.8262739
  51.9181728  35.2767801  34.7953606  51.6771412  34.5213962  34.0474391
  52.8820896  35.0467563  35.2492857  51.1416149  35.4150057  35.5476546
  53.1986237  36.3766646  33.0626512  52.7499485  36.0116506  32.1387672
  53.7823296  37.2477865  32.7651072  54.0476036  35.7276034  33.2772493
  49.8762035  38.5754704  31.5679884  49.9173403  37.8290248  30.6437564
  49.0536833  39.6143723  31.5849376  49.2364883  40.2976418  32.3059249
  47.9354429  39.8469400  30.6200004  47.2050667  39.0392685  30.6681824
  47.2945356  41.1678123  31.0691667  46.4596462  41.4737320  30.4387116
  46.9069195  40.9699011  32.0685077  48.0618334  41.9350624  31.1725187
  48.4012842  39.9153924  29.1431761  49.4477749  40.5290937  28.8638282
  47.5844145  39.3655610  28.1854820  46.6442347  39.1134429  28.4549308
  47.8479481  39.4558096  26.7864299  48.5800838  40.2577305  26.6915679
  48.6285400  38.1632614  26.3603163  49.1877794  38.2539845  25.4291248
  49.2491198  37.8197193  27.1879387  47.6266861  36.9402099  26.2383223
  47.3592949  36.6212082  27.2457147  46.6703510  37.0530558  25.7276487
  48.3009148  35.8140230  25.5789685  48.6475754  36.1319685  24.5956898
  49.1305733  35.5271864  26.2251043  47.3698711  34.6064711  25.3902650
  47.1421528  34.2217517  26.3843656  46.4363575  34.8489380  24.8824549
  48.0149889  33.4890342  24.6809626  48.0290794  33.6735654  23.6880612
  48.9767790  33.3631968  24.9624372  47.5360394  32.6192141  24.8656845
  46.6180754  39.6446729  25.9059381  45.5236959  39.3509674  26.3915300
  46.7409039  40.1583242  24.6777415  47.6560402  40.3960800  24.3226361
  45.5888748  40.3702593  23.7942433  44.8341179  40.8920670  24.3825960
  46.1038780  41.2168694  22.6029587  46.7854261  41.9366550  23.0562806
  46.7281866  40.5763578  21.9799852  45.0417471  41.9620562  21.7689705
  44.2989159  41.2403202  21.4292717  44.5383406  42.6264381  22.4713111
  45.7029629  42.6499224  20.5698919  46.6884232  42.2071743  20.4251933
  44.9881840  42.5447702  19.7537231  45.9091330  44.1607571  20.7923985
  44.9358749  44.6324396  20.9279537  46.3827372  44.1842222  21.7738509
  46.6521215  44.8535347  19.7654414  46.0957003  44.8681021  18.9226580
  46.9567156  45.7503748  20.1161551  47.4968338  44.3195391  19.6191013
  45.0106335  39.0655398  23.2413411  45.8074856  38.1596613  23.0769920
  43.7056160  38.9227557  22.9931235  43.1170273  39.7386408  23.0825496
  43.0497551  37.6954317  22.4298215  43.8121271  36.9804430  22.1205020
  42.1217060  36.8741035  23.4139848  41.9889545  35.8542109  23.0530190
  42.7388334  36.7659664  24.3059301  40.7833433  37.5946116  23.6737990
  39.6175170  37.1847105  22.9525948  39.6649361  36.3316011  22.2920203
  38.3875561  37.8588986  23.0321622  37.4997616  37.6599216  22.4502397
  38.2606816  39.0400863  23.8125992  37.0819163  39.6717405  23.7525511
  36.8949413  40.2913952  24.4615436  39.3938112  39.5368505  24.4814563
  39.3029690  40.4190397  25.0978088  40.6399107  38.7818360  24.5046782
  41.4670944  39.0542769  25.1433873  42.2655439  37.9627752  21.1070204
  41.9065046  36.9778037  20.5036426  42.0862484  39.2118764  20.6382298
  42.5423431  39.9863148  21.0990119  41.4265919  39.4375348  19.3246841
  41.7658806  38.6689568  18.6302245  39.9118423  39.2632484  19.3855643
  39.4918656  39.4050288  18.3897638  39.6099448  38.2633781  19.6973634
  39.1383815  40.2829742  20.1210785  39.4618845  40.2016354  21.1587834
  39.4787097  41.2430191  19.7330117  37.5933504  40.2174473  20.1569891
  37.1110368  40.2963591  19.1826963  37.4069619  39.2500234  20.6233096
  37.0335793  41.3242674  20.9440446  37.6886082  42.0167923  21.2778807
  35.8533430  41.4368296  21.4620113  34.9366260  40.5122185  21.3888764
  35.1399660  39.7174907  20.7996678  34.0509295  40.6459618  21.8555140
  35.6285191  42.4998856  22.1564102  36.3697338  43.1364107  22.4124122
  34.7944164  42.6205587  22.7130246  41.7370415  40.7706022  18.5947919
  41.8335772  41.7952728  19.2167914  41.7868042  40.6951904  17.2610474
  41.6237593  39.8233891  16.7778480  41.9420147  41.7805099  16.3022029
  42.8648233  42.3370552  16.4658761  42.1507311  41.1241055  14.9505472
  43.0089617  40.4524708  14.9717832  41.1993551  40.6370497  14.7366178
  42.3669624  42.1348953  13.8080764  42.4338102  41.6599417  12.7065957
  42.5610352  43.3353662  14.0758896  40.7257509  42.7012157  16.2265623
  39.6114349  42.3107958  15.8400548  40.9894848  43.9448309  16.5697598
  41.9537640  44.2383432  16.6339421  40.0630522  45.0196695  16.8512046
  39.4298124  44.5000887  17.5703359  40.7258272  46.2835169  17.4117541
  39.9848080  46.9315767  17.8797376  41.4221954  46.0010338  18.2012951
  41.5687799  47.1688128  16.4931369  42.1938324  46.6855764  15.5762959
  41.7835808  48.4019232  16.8816590  42.5121641  48.8446283  16.3401067
  41.2765503  48.9480639  17.5633907  39.2425728  45.4176426  15.5927908
  38.0650187  45.9367561  15.6431890  39.9180388  45.2093983  14.4301891
  40.9063959  45.0255823  14.5274353  39.5287538  45.4338074  12.9902387
  38.8978338  46.3215446  13.0345666  40.8727407  45.6898260  12.2660315
  41.6914606  45.7840824  12.9794145  41.0378027  44.8074627  11.6477346
  40.8120584  46.9719076  11.3077199  39.9024177  46.8579817  10.7180774
  40.6728220  47.9461050  11.7763937  41.9479513  46.9895077  10.3774524
  42.8598404  46.9358683  10.9721589  41.9478607  46.0848904   9.7693664
  41.8673611  48.1826448   9.4834477  40.9676123  48.6383915   9.5368415
  42.8603935  48.7548590   8.8106167  43.9703989  48.1168127   8.5548270
  44.1848230  47.2839069   9.0843499  44.5747328  48.5109234   7.8480315
  42.8028679  49.9302626   8.3283395  41.9461584  50.4392815   8.4928203
  43.5984468  50.3117085   7.8367543  38.6883187  44.3408537  12.2631991
  37.9491067  44.6717453  11.3260961  38.7600183  43.1201553  12.8016257
  39.3984437  43.0975628  13.5839319  38.1448293  41.9536877  12.1614981
  37.4386454  42.2418404  11.3827968  39.1348624  41.2135124  11.2223864
  38.5612893  40.3712559  10.8354533  39.8099780  42.0324230  10.1567543
  39.9244475  41.4771795   9.2257851  39.2360592  42.9479074  10.0132120
  40.8098888  42.3791742  10.4176235  40.1705217  40.4987526  11.7894590
  40.8849239  41.1039925  12.0014012  37.4400997  40.9562445  13.1038713
  36.7944646  40.0089836  12.6766312  37.6005387  41.1065054  14.3977034
  38.2927346  41.7867088  14.6775138  37.1282005  40.1764441  15.4593182
  37.2666097  40.7320499  16.3868141  35.5753756  39.9064016  15.3896999
  35.1426888  40.7564116  14.8620987  35.3826094  39.0816379  14.7036195
  34.7832108  39.6321154  16.7092848  35.1837564  38.7809300  17.2598720
  34.8383403  40.5359888  17.3159826  33.2866287  39.1960263  16.4230347
  33.2796764  38.2202101  15.9374082  32.7957654  39.2293453  17.3956847
  32.5336862  40.1819754  15.6478953  33.0323505  40.9537506  15.2286088
  31.2155676  40.1860762  15.3825092  30.3926063  39.3238115  15.9213984
  30.7771707  38.6376309  16.5549350  29.4231963  39.4289303  15.6581616
  30.6891060  40.9342623  14.4683802  31.3808274  41.4473581  13.9407897
  29.7687960  40.8476734  14.0613949  37.8314996  38.8955545  15.6534183
  37.5644636  38.1428051  16.5771568  38.8696337  38.6431694  14.8586059
  39.0335941  39.3355703  14.1418087  39.7193336  37.4155831  14.8024940
  39.0759158  36.5575933  14.6076381  40.7789660  37.5374770  13.6581099
  41.3150501  38.4781575  13.7839961  41.4689398  36.6937733  13.6723292
  39.9776030  37.4187326  12.3185754  39.5075560  36.4365697  12.2684348
  39.1595173  38.1384730  12.3469675  40.7532740  37.6673508  10.9850085
  41.9483280  37.8483915  11.0138464  40.0292444  37.6943231   9.8861510
  40.5511093  37.9109263   9.0489888  39.0305901  37.8361750   9.8344576
  40.5155277  37.0724988  16.0647762  41.4999390  37.7272487  16.4738846
  40.1119900  35.9155250  16.6861725  39.4796371  35.2871776  16.2114024
  40.7623863  35.1275182  17.7877796  40.9163666  35.8271575  18.6093009
  39.8304391  34.0216660  18.3145034  38.8015747  34.3669534  18.4160626
  39.7691989  33.1698728  17.6371527  40.1457071  33.4971118  19.6745360
  40.1014566  34.2656779  20.8222389  40.6463385  33.5528731  21.7853260
  40.7240534  33.8266134  22.8271651  40.8824921  32.2540975  21.2864208
  41.3746309  31.4585710  21.6672540  40.5912113  32.2912455  19.9510217
  40.7865286  31.5322542  19.2079306  42.1922970  34.6605301  17.4401700
  42.5271034  34.3170810  16.3227153  43.0484486  34.7927976  18.3940184
  42.7070427  34.9033141  19.3381202  44.3962145  34.2248130  18.4359527
  44.9428177  34.6610045  17.5998545  45.0542688  34.4736934  19.7826576
  45.9046268  33.8039207  19.9107409  45.5789757  35.9217572  19.7066772
  44.8346806  36.7082143  19.5817316  46.2441969  36.1508584  20.5392003
  46.1558294  35.8703899  18.7832534  44.2193460  34.2365766  21.0391712
  43.5405493  35.0743318  21.1988688  43.5145378  33.4110332  20.9400892
  45.1474810  34.1538119  22.2830558  45.6192780  33.1741118  22.3585248
  45.9000206  34.9387789  22.3578787  44.4765234  34.3312931  23.1235409
  44.3659401  32.7106261  18.1663966  43.3205223  32.1071744  18.4066904
  45.4048729  32.1668482  17.5416410  46.7347383  32.7466202  17.2503471
  47.2941875  33.0339670  18.1405985  46.6439342  33.6114597  16.5931535
  47.5593567  31.5726876  16.6418743  48.0746555  31.1239481  17.4911082
  48.3026934  31.8100572  15.8808112  46.5074968  30.4762697  16.2674320
  47.0312214  29.5228505  16.3367462  46.0223293  30.6780744  15.3124487
  45.3761196  30.6848264  17.2287667  44.4079971  30.3999400  16.8168437
  45.6646776  29.8240209  18.4702289  46.4339495  30.2668071  19.2951906
  45.1339483  28.5923076  18.5183287  44.6930599  28.2838368  17.6635969
  45.3771544  27.4957466  19.5100856  45.1505995  27.9369783  20.4806995
  44.3438768  26.3482809  19.2966461  43.3127403  26.6914654  19.3807912
  44.5113230  26.0330582  18.2667446  44.4056940  25.2238822  20.2985096
  43.6534691  25.2890563  21.4890766  43.2051134  26.2448621  21.7167115
  43.5109329  24.2217588  22.4137592  42.9459190  24.3420506  23.3262753
  44.1960192  23.0106330  22.1206021  44.0947008  21.9946504  22.9635453
  44.7306919  21.3343740  22.6786804  44.9569178  22.9490471  20.9476376
  45.5290937  22.0670390  20.7005024  45.1302099  24.0365148  20.0125909
  45.7359219  23.9292717  19.1248918  46.8227386  26.9072413  19.5496595
  47.3565292  26.5190792  18.5070634  47.4025488  26.9284368  20.7482433
  46.8848944  27.3007965  21.5314960  48.7688780  26.4956737  21.0211110
  49.0983391  25.7804275  20.2674675  49.7723150  27.6082540  20.9492016
  49.4667196  28.3498883  21.6872287  50.7672501  27.2827554  21.2529325
  49.8942661  28.4501052  19.6599877  48.9142370  28.7739110  19.3095636
  50.6003666  29.2762089  19.7440755  50.5027199  27.4674344  18.6169875
  51.4781523  27.2384882  19.0461946  49.9097157  26.5679383  18.4515870
  50.6378078  28.1012845  17.2766817  51.5474939  28.4795666  17.0542550
  49.7690296  28.0400181  16.2739825  48.6637926  27.4350142  16.2854481
  48.4425592  26.8506289  17.0789528  48.1618834  27.3156786  15.4171443
  50.0853300  28.6004400  15.0731957  50.9519291  29.0378404  14.7942841
  49.2430258  28.7569785  14.5382893  48.7577295  25.7640386  22.3853946
  48.7742662  26.4284563  23.4218025  48.9123535  24.4665146  22.3272038
  49.0055275  24.0876269  21.3956118  49.2274427  23.5666680  23.4097958
  48.6707640  23.8085365  24.3151712  48.9026642  22.1530843  23.0009770
  49.4796562  21.7579675  22.1648788  49.0142775  21.4959645  23.8634372
  47.4617624  22.0038390  22.5068808  46.8215752  22.6222587  23.1360197
  47.3473167  22.4288487  21.5096974  47.0441008  20.5694842  22.3703742
  45.9536123  20.1880860  22.8750515  47.6889563  19.7457600  21.6690969
  50.7882690  23.5108876  23.7529135  51.5386868  24.3063354  23.1655622
  51.2659788  22.6775670  24.6720767  50.6265736  22.0994496  25.1984262
  52.7440596  22.4059296  24.8871374  52.8590631  21.5264463  25.5206895
  53.3613348  21.9996762  23.6172247  53.4339237  22.7293968  22.8107905
  54.3290854  21.5497088  23.8387966  52.5243282  20.8458686  22.9575944
  52.3927116  19.7322488  23.5367298  52.0207739  20.9507322  21.7867398
  53.5086012  23.4401941  25.6918478  54.7102165  23.3051920  25.8225989
  52.8516102  24.5371246  26.1308885  51.8807507  24.5602965  25.8534026
  53.4820032  25.6583810  26.8962669  54.4356680  25.9450412  26.4530396
  52.5422668  26.8558526  26.8927169  51.5714073  26.5432119  27.2771430
  53.0236721  27.6011276  27.5258923  52.2571135  27.5312161  25.4753113
  53.1310463  28.0655742  25.1027465  51.9991350  26.6621256  24.8701429
  51.0718775  28.5076141  25.5475092  51.4047909  29.3758869  26.1161661
  50.9738970  28.7568641  24.4909239  49.6877337  28.0975890  26.0774088
  48.9103174  28.7907481  25.7560802  49.4679880  27.1366572  25.6121945
  49.6272564  28.1134677  27.5676823  50.1788807  27.3617554  27.9559398
  50.0024796  28.9966011  27.8829336  48.6696291  27.9666233  27.8531432
  53.7946701  25.2238631  28.3314705  52.9728222  24.5451355  28.9893985
  54.9716187  25.6052804  28.7554550  55.6506681  25.9433746  28.0886102
  55.3073168  25.7085085  30.1973367  55.4185104  24.7064495  30.6115961
  56.4685106  26.6020966  30.3298759  56.9850159  26.8330693  29.3982220
  56.1628056  27.5741839  30.7167768  57.4511194  25.9976935  31.1825800
  57.5109005  26.1863756  32.3951745  58.4243917  25.3554416  30.5516958
  59.1530609  24.8755407  31.0604644  58.3337021  25.2643728  29.5499063
  54.0937662  26.2968826  30.9093285  53.3592033  27.1634388  30.4347968
  53.9409828  25.9657216  32.1684408  54.5495033  25.2524972  32.5440907
  53.0207396  26.6887689  33.0415273  52.0008850  26.5489602  32.6831222
  53.1396914  25.9323788  34.3640065  52.6524067  24.9651241  34.2412353
  54.1286659  25.6450820  34.7210646  52.3467541  26.6755962  35.4847693
  52.8332758  27.6416492  35.6194353  50.8264732  26.8478060  35.1393032
  50.4914951  25.8572626  34.8315501  50.1922083  27.1435499  35.9749722
  50.6177092  27.5719833  34.3518496  52.5533962  25.8818674  36.7527485
  52.3176861  24.8272514  36.6101742  53.5843658  26.0478330  37.0652556
  51.9910908  26.3548899  37.5578332  53.3930254  28.2373548  33.2088852
  54.5933437  28.5405517  33.3788228  52.3553228  29.0887451  33.1401157
  51.4267302  28.7329531  32.9634142  52.3859930  30.4473829  33.6826587
  53.0784512  30.3833294  34.5220041  53.0107737  31.5313911  32.7646136
  53.8386583  31.1394477  32.1737790  51.9328022  31.9668102  31.7521286
  51.2854147  32.6304054  32.3253918  52.2924471  32.5564408  30.9088659
  51.3963127  31.1050177  31.3551402  53.3676529  32.6853991  33.4631038
  54.1047192  32.4544311  34.0331769  51.0647535  30.8176398  34.3495250
  50.0563812  30.1453161  34.3008065  51.0537481  31.9620919  34.9953532
  51.8677759  32.5584269  35.0382400  49.9458885  32.2837424  35.9759259
  49.8421431  33.3555651  36.1448431  48.9592314  31.9817710  35.6246161
  50.0907326  31.6270828  37.3475528  50.6975508  30.5702281  37.4157500
  49.7619295  32.2889209  38.4361577  49.4005156  33.2272148  38.3408451
  49.9269962  31.7481995  39.8113513  50.9985495  31.6427398  39.9809098
  49.3948460  32.7373457  40.8917856  48.3139181  32.8471947  40.8044147
  49.8293781  32.2440600  42.3226118  50.8974791  32.0582938  42.2096586
  49.6036148  32.9587722  43.1140137  49.3435574  31.3092351  42.6022243
  50.0271797  33.9130163  40.7211065  49.5876169  34.3646669  39.9969506
  49.2129993  30.4248738  39.9946856  48.0724144  30.2753925  39.6596336
  49.8915243  29.4694042  40.6139755  50.8237123  29.7128630  40.9170485
  49.5762205  28.0686927  40.4258394  49.5954657  27.9041409  39.3485022
  50.5997181  27.1151066  41.0458088  50.2854633  26.0924673  40.8371162
  51.5763044  27.3261261  40.6100893  50.6253862  27.1568370  42.1347094
  48.1618166  27.7708197  40.9443235  47.2867775  27.2290826  40.2654600
  47.9042625  28.2914066  42.1666861  48.6883402  28.6376953  42.7009201
  46.6312885  28.0954313  42.8658915  46.4070559  27.0343924  42.9755211
  46.7119741  28.8861609  44.1632366  46.9718933  29.8829699  43.8069916
  45.7642269  28.8420820  44.6998310  47.8240871  28.4971094  45.1401520
  47.8267717  27.4090576  45.2052402  48.7948608  28.8521910  44.7942972
  47.6229239  29.0881181  46.5302849  48.0134106  30.0901437  46.7079401
  46.5956211  29.0778804  46.8945026  48.3362103  28.3415365  47.6548576
  47.7099323  27.7849984  48.2188988  49.4973850  28.5393643  48.2460928
  50.3367901  29.4278598  47.9037380  50.1329231  30.0948024  47.1731710
  51.3163328  29.4210386  48.1498194  49.9264908  27.7638483  49.2582750
  49.2585897  27.1943045  49.7579050  50.7494068  28.0375791  49.7759438
  45.4086781  28.5415816  42.0136356  44.3947744  27.8733659  41.9159651
  45.5384541  29.6385360  41.3132572  46.4596224  30.0500655  41.2664080
  44.4599342  30.3890896  40.6253099  43.5027409  30.0149775  40.9885406
  44.4381905  31.8376040  40.9828424  45.3160000  32.3457980  40.5837297
  43.6395073  32.3367190  40.4341269  44.2942286  32.0599508  42.4327517
  43.0134869  31.8439555  43.0736923  42.1704483  31.6340971  42.4320889
  42.8708792  31.9266915  44.4611549  41.8785477  31.7903185  44.8649931
  44.0679741  32.0858169  45.2293396  43.8835621  32.1026587  46.5778112
  44.7307777  32.2773480  46.9941139  45.3168249  32.2949934  44.6918535
  46.1812210  32.4654651  45.3164816  45.4443932  32.2939658  43.2925510
  46.4041328  32.6467872  42.9449701  44.4523525  30.0921154  39.1708875
  43.4082556  29.6633625  38.7075996  45.5488491  30.2072453  38.4229279
  46.4235067  30.5313873  38.8102388  45.6975985  29.7423220  37.0192552
  45.2781248  30.5154562  36.3755107  47.1699953  29.5800114  36.7798209
  47.6394033  28.9265561  37.5151706  47.3534441  29.0824723  35.8275080
  47.7480555  30.5028510  36.8279600  44.9461126  28.3772373  36.6689253
  44.9234486  27.4286914  37.4638820  44.2222929  28.4519243  35.5164051
  44.1973782  29.3646765  35.0847101  43.3132458  27.4294543  35.1451039
  42.6073742  27.1872592  35.9395766  42.5144672  27.7962232  33.8561344
  41.8644905  26.9779968  33.5460830  41.8975019  28.6632586  34.0921521
  43.4291410  28.0857372  32.7926564  42.9067326  28.3760381  32.0413804
  44.0324450  26.0701108  34.9078560  45.2076149  25.9725165  34.5870519
  43.2592535  24.9457359  34.9490476  42.2595310  25.0887966  34.9356508
  43.7626314  23.6154056  34.5924234  44.5834637  23.3802366  35.2699447
  42.6813889  22.4141049  34.6382093  41.9401932  22.7707362  33.9229822
  43.2380962  21.0096335  34.1606712  44.1899776  20.9291673  34.6855927
  42.4820900  20.2599335  34.3941331  43.4176826  21.0110760  33.0855680
  41.9814587  22.4010539  36.0109353  42.5397730  22.4724650  36.9443631
  41.3968897  23.3209443  35.9974861  40.9281063  21.2640452  36.3153028
  40.2807379  21.0610628  35.4621840  41.4058304  20.3253102  36.5957618
  40.3811121  21.4457607  37.2404361  44.5168018  23.6354852  33.2062054
  45.5771637  22.9830074  32.9476190  43.9517593  24.3861794  32.2432518
  42.9919815  24.6364927  32.4337053  44.5149612  24.5955849  30.8908844
  44.5671558  23.6552763  30.3420663  43.5336256  25.4761887  30.0924087
  43.6165476  26.4937091  30.4743481  43.7571144  25.5425715  29.0276289
  42.0596886  25.1872754  30.2420259  41.5420628  24.1472006  30.6154156
  41.2780809  26.1560321  29.8377085  40.2814722  26.0134149  29.9185777
  41.6352367  27.0926023  29.7136950  45.9964514  25.1593685  30.9141612
  46.8425751  24.6731710  30.1451015  46.2779808  26.1473083  31.8169594
  45.6155968  26.4584351  32.5130534  47.6101017  26.6358471  31.9471765
  47.9957724  26.8762136  30.9564281  47.4662638  27.8946185  32.8715396
  47.1358061  27.5497866  33.8513303  48.4721994  28.2878017  33.0184960
  46.8328857  28.6913490  32.4814725  48.5088873  25.4616761  32.4757648
  49.6445990  25.3025079  31.9386649  48.0803871  24.6193027  33.4478807
  47.1750164  24.8523831  33.8300776  48.8388968  23.5103321  34.0425134
  49.8224831  23.8645911  34.3509889  48.2317114  22.9450679  35.3435493
  47.1905279  22.6421475  35.2327275  48.8296747  22.1277046  35.7466078
  48.0770063  23.9670110  36.4750862  49.1871309  24.3113446  37.2370195
  48.8305187  25.3939915  37.9227090  49.4468832  25.8637953  38.6748934
  47.5549507  25.6630802  37.7780008  47.0210552  26.4176178  38.1851053
  47.0432234  24.7944188  36.8308330  45.9821272  24.6549582  36.6858196
  49.1890526  22.4273968  33.0612540  50.2936459  21.9117069  33.0816793
  48.2769823  22.1222353  32.1545219  47.3764420  22.5794888  32.1477127
  48.3959961  21.2510943  31.0257530  48.9625120  20.4038143  31.4121103
  47.0151091  20.8246875  30.5127859  46.3396931  21.6779661  30.4507899
  47.1102095  20.4182100  29.5058942  46.3727903  19.7474122  31.4075875
  46.3286161  20.1212740  32.4305129  44.8925972  19.5188928  30.9546065
  44.9186420  19.3522406  29.8777366  44.5300961  18.6634362  31.5245962
  44.1822004  20.3297234  31.1158538  47.0464277  18.4136617  31.3602829
  48.0412912  18.5859823  31.7709565  46.5124083  17.7423751  32.0328140
  47.1373510  18.0890954  30.3237033  49.2192698  21.9156766  29.8399997
  49.7091675  21.2250566  28.9863038  49.3560028  23.2168770  29.7293878
  49.1053629  23.8167572  30.5023193  49.9688673  23.9111710  28.6085963
  50.3988743  24.8028851  29.0647149  50.7804632  23.3277869  28.1737685
  49.0438223  24.2712021  27.4346423  49.5941734  24.8712492  26.5250921
  47.7635670  24.0138221  27.5246000  47.5354719  23.9728522  28.5076571
  46.6331100  24.4856715  26.5580440  46.9127893  24.0831423  25.5844688
  45.3718519  23.7624454  27.0762300  45.1678944  24.0235281  28.1146598
  44.1117954  24.1863990  26.3384771  43.2474518  23.6242843  26.6920853
  43.8633728  25.2376819  26.4840436  44.1836739  24.0043283  25.2661967
  45.5227470  22.2081375  27.1263957  46.3207102  22.0757866  27.8570342
  44.6431446  21.6722059  27.4830222  45.9951305  21.4098787  25.8628488
  47.0665979  21.5796089  25.7567310  45.8573627  20.3635693  26.1355305
  45.4269123  21.7379141  24.9924350  46.5271568  26.0174108  26.5017319
  46.8290949  26.5965033  27.5323415  46.0787058  26.5687919  25.4063773
  45.9639120  26.0321641  24.5584655  45.9241724  28.0480957  25.3333974
  46.8581009  28.4763384  25.6973910  45.8574390  28.4356284  23.8821888
  46.5368557  27.6848722  23.4786272  44.8579884  28.1888461  23.5240006
  46.3188934  29.8220134  23.5076046  46.6053867  29.7412920  22.4590302
  45.5165958  30.5357933  23.6945438  47.5326967  30.3688812  24.2917728
  47.3882055  30.9214258  25.4410601  48.6708117  30.3116369  23.6917520
  44.8108912  28.7287927  26.1861205  43.6982727  28.1238580  26.3209701
  45.0040817  29.9716330  26.6024470  45.8942318  30.3844047  26.3629460
  44.0260220  30.7504106  27.4918723  43.2472610  30.0809336  27.8571606
  44.7314978  31.5219116  28.6801624  45.3693867  32.2773957  28.2214308
  44.0444946  32.1367979  29.2615724  45.5244780  30.8049297  29.7952819
  46.3779354  31.3587332  30.1864529  44.8779917  30.6762028  30.6633759
  46.0717010  29.4723034  29.3724370  47.1821308  29.3348670  28.9358521
  45.2560139  28.4009218  29.4192338  45.6208277  27.5552607  29.0046573
  44.3245888  28.4149456  29.8095608  43.1762362  31.7606115  26.6926742
  43.6585760  32.4241066  25.7848239  41.9051647  31.9449925  27.1219063
  41.6905260  31.4282346  27.9627347  40.8548594  32.8578091  26.6998982
  41.2894869  33.6954236  26.1543727  40.0628090  32.1470785  25.6635261
  40.7231188  31.5766382  25.0103092  39.5619988  31.2841415  26.1024213
  39.2610073  33.0017471  24.9748945  38.8051248  32.4635029  24.3236899
  39.9875665  33.3778429  27.8919172  40.4543543  33.4308982  29.0003324
  38.7890196  33.8278890  27.6202488  38.6052370  33.9743066  26.6379619
  37.9068851  34.5073843  28.5745811  38.5318494  35.2922559  29.0006042
  36.6490889  35.0450349  27.8302932  36.1967659  34.2767739  27.2031689
  35.9315777  35.3753567  28.5814023  37.1093678  36.1909604  26.8638229
  37.6303935  36.8477058  27.5604725  37.8273797  35.8130360  26.1359954
  36.0622048  36.9166970  26.0268831  35.1886630  37.2228003  26.6024899
  36.5399933  37.8735328  25.8164406  35.7043409  36.2265539  24.7749233
  36.3031650  35.5070138  24.3957543  34.8726964  36.8460703  23.8570046
  34.2202568  37.9248142  24.0595746  34.2357397  38.3818722  24.9601054
  33.5656786  38.1584167  23.3267307  34.7431493  36.2664437  22.7220845
  35.2435470  35.3961062  22.6115584  34.2034698  36.6053700  21.9385171
  37.4631906  33.5300422  29.6732426  37.5283456  33.8677931  30.8184433
  37.2797012  32.2333956  29.3007874  37.4486661  32.0655823  28.3192635
  36.9736457  31.1345673  30.2394342  36.0186219  31.3422894  30.7220149
  36.8675709  29.7779107  29.4473267  36.4822412  28.9821863  30.0848556
  36.1048913  29.9379849  28.6852264  38.1836128  29.3512583  28.8912749
  38.7391615  30.1488948  28.3980823  38.7452984  29.0070343  29.7596765
  38.0898476  28.1209707  28.0478024  37.7824736  27.2881866  28.6803317
  37.3147035  28.2415271  27.2910166  39.4213915  27.9146338  27.4977255
  40.1211500  28.6142826  27.7000403  39.8120999  26.7741013  26.8795872
  38.9758277  25.8541274  26.4948511  37.9966092  25.9231997  26.7324662
  39.3317938  24.9589300  26.1915159  41.0105038  26.6368055  26.5237808
  41.7255974  27.3238587  26.7153525  41.1907482  25.7906675  26.0025668
  37.9803133  31.1014891  31.3957047  37.6290250  30.9397650  32.5788879
  39.2470860  31.2434149  31.0915017  39.4569468  31.2464499  30.1035500
  40.3209066  31.0655355  32.0656705  40.2084017  30.1039672  32.5664997
  41.7443705  30.9038901  31.3005686  41.9289875  31.8252516  30.7481980
  42.5429678  30.8421636  32.0398474  41.7592049  29.7108960  30.3247499
  42.4415922  28.6749339  30.5924320  41.1028528  29.8382616  29.2505646
  40.3140736  32.0762682  33.1816053  40.5651951  31.6498780  34.3101001
  39.9830365  33.3630061  32.9666615  39.8115849  33.5298729  31.9854069
  39.8492932  34.4606328  33.9190507  40.7624865  34.5851851  34.5009971
  39.6208310  35.7807803  33.1792498  38.9885783  35.6200862  32.3060179
  39.1675949  36.4936686  33.8680649  40.8713531  36.3425064  32.5112534
  42.0421505  35.9305596  32.8228593  40.8186865  37.3147154  31.7117119
  38.6845827  34.1594601  34.8458529  38.7508631  34.4594526  36.0199571
  37.5766301  33.6428452  34.3296528  37.6186466  33.4017777  33.3497429
  36.3709307  33.2749534  35.0542903  36.1671329  34.1237712  35.7070398
  35.2550387  33.0218363  34.1132951  35.3912091  32.0673728  33.6048126
  34.4277787  32.9266572  34.8166299  35.1505208  34.2483497  33.1959915
  35.6674600  35.0966835  33.6445475  35.6033587  33.8928413  32.2704387
  33.4233475  34.6960163  32.7924728  32.8261757  35.4164624  34.3588853
  33.0719066  34.7606754  35.1941466  33.2269979  36.4216900  34.4891119
  31.7424798  35.5103016  34.4288635  36.6184711  31.9734216  35.8473969
  36.1046910  31.8579841  36.9652820  37.4448156  31.0419250  35.3330803
  37.6408362  31.1316419  34.3463564  37.8831315  29.8745275  36.0487890
  37.0828485  29.3386626  36.5591764  38.7758422  28.8401484  35.2557087
  38.1808209  28.5277033  34.3975520  39.7161913  29.2720699  34.9132347
  39.0284038  27.5974178  36.0979652  39.6598935  27.8642941  36.9453716
  38.0773020  27.1658278  36.4097977  39.6677828  26.5285397  35.2214885
  39.5096755  26.4643216  33.9861488  40.5188179  25.7171726  35.7419086
  38.7418485  30.3732944  37.2069907  38.4395027  30.1609588  38.3942938
  39.7878146  31.1875105  36.9399166  40.1184177  31.2580538  35.9881663
  40.5208635  31.9680524  37.9356527  41.1974335  31.2393355  38.3821106
  41.5573978  33.0082250  37.4163246  41.1023712  33.9441800  37.0922303
  42.1643353  33.2656860  38.2843351  42.4669456  32.4068141  36.3940859
  41.9539213  32.1216846  35.6344104  39.6464324  32.6269889  38.9899874
  39.8740935  32.3746610  40.1704693  38.5959291  33.3131528  38.5893250
  38.4498787  33.4441161  37.5985575  37.7187729  34.0175748  39.5259047
  38.3108544  34.6300030  40.2059555  36.7226195  34.8608732  38.6840296
  37.3618889  35.5592155  38.1438899  36.1554003  34.1128087  38.1301665
  35.6883264  35.6695437  39.5573950  35.0950766  34.9144506  40.0731421
  36.3942027  36.6240215  40.5898476  35.6434727  37.1774507  41.1539602
  36.9521213  36.1365795  41.3893652  37.0333600  37.2796035  39.9984193
  34.7949743  36.5931582  38.5968828  35.4762387  37.3675537  38.2443309
  34.5305967  36.1569142  37.6336098  33.9178467  37.0142198  39.0882683
  36.9492555  32.9843926  40.4108286  36.8306065  33.2925773  41.5775347
  36.5838504  31.7717195  39.8744965  36.8895173  31.7630887  38.9118981
  36.0980630  30.5906415  40.4994202  35.0711298  30.7936144  40.8032417
  36.1374760  29.8242021  39.7253919  36.9752383  30.1418376  41.7389107
  36.4808965  30.1612401  42.8286648  38.2435417  29.8908472  41.5826368
  38.6788988  30.0367594  40.6830359  39.0970349  29.5967364  42.6814079
  38.5301089  28.8531685  43.2415915  40.4424191  29.0758419  42.1524143
  40.9263420  29.9055433  41.6371346  41.1550426  28.7131858  42.8931952
  40.3695774  28.0491018  41.0707235  39.8260975  26.8138099  41.4313078
  39.3857527  26.7397857  42.4146795  39.8124218  25.7394671  40.5520821
  39.3333864  24.7951603  40.7647085  40.3588438  25.8831787  39.2951393
  40.3856087  24.7797155  38.4142756  40.5472136  25.0690079  37.5132775
  41.0306406  27.1039414  38.9294767  41.4337015  27.1322250  37.9279089
  40.9516001  28.2226324  39.8013139  41.3683033  29.1674018  39.4848156
  39.2597437  30.6531906  43.6931229  39.4402432  30.3231955  44.8508835
  39.1853452  31.9257116  43.3019972  38.6915374  32.1253538  42.4438620
  39.1784692  33.0903339  44.2484570  40.0870895  32.9385328  44.8310947
  39.2783594  34.4806361  43.5339260  38.4703326  34.5449042  42.8051853
  39.0751243  35.6488204  44.5101738  38.1053376  35.7059836  45.0044870
  39.7974539  35.4910588  45.3110838  39.3590784  36.5166712  43.9149380
  40.6247091  34.6295691  42.8586149  41.5004349  34.6531558  43.5071993
  40.7428408  33.8571787  42.0986414  40.6360579  35.5779243  42.3214054
  37.8879809  32.9959798  45.0508165  37.9659104  33.0809522  46.3066149
  36.7274857  32.8888249  44.3879890  36.6693926  32.9196620  43.3801317
  35.4534864  32.7628589  45.0829840  35.4826927  33.6227036  45.7522535
  34.3297410  32.8993845  44.0951347  34.3500018  32.0635104  43.3958483
  33.4282136  32.8763556  44.7073603  34.2655325  34.2138410  43.3391380
  35.2371740  34.5071959  42.9417038  33.3481240  33.9966393  42.1612597
  33.6821842  33.2314396  41.4605665  32.3984838  33.6047626  42.5255537
  33.1107354  34.9683070  41.7281199  33.8066101  35.4663372  44.1181660
  34.4998574  35.6607985  44.9365139  33.6247110  36.3407612  43.4933519
  32.8459668  35.2142000  44.5672655  35.3270626  31.5255141  46.0802650
  34.7377324  31.5745878  47.1470022  35.9086013  30.4378080  45.6152534
  36.3082528  30.4502153  44.6877718  36.1938143  29.2899513  46.5162420
  35.2549791  28.8783240  46.8867207  36.8580794  28.1562304  45.7172489
  37.7402854  28.5471129  45.2102709  37.2551703  27.4475050  46.4439726
  36.0704708  27.3059464  44.7327089  35.3317976  26.8372440  45.3829241
  35.7051325  28.0008435  43.9765692  37.2143531  26.1277699  43.8530922
  37.0277190  24.5466685  44.6264553  37.7894068  23.8565278  44.2636347
  36.9948363  24.6833730  45.7073498  36.0691810  24.0959334  44.3692589
  36.9571066  29.7525930  47.8180981  36.4315462  29.4725728  48.9118195
  38.2256031  30.2796841  47.6690197  38.5064888  30.4437494  46.7128372
  39.1444564  30.6900287  48.7982321  39.4390106  29.7540855  49.2729425
  40.4098463  31.3039756  48.1454802  40.9047270  30.4687047  47.6499844
  40.0962543  32.0677471  47.4338484  41.3582659  32.0016241  49.0846825
  42.2571754  31.2229657  49.8644066  42.1364212  30.1498008  49.8527431
  43.1671762  31.9084692  50.6635284  43.8919687  31.3113594  51.1969519
  43.2638073  33.3180451  50.6611681  44.0928173  34.0211415  51.4816284
  44.3089628  34.8921013  51.1405897  42.3575115  34.0825582  49.8697090
  42.3259449  35.1609421  49.9196100  41.4149570  33.4097075  49.1116142
  40.8407259  34.0160608  48.4267807  38.4593368  31.5874553  49.8835230
  38.4182334  31.2433028  51.0382080  37.7321291  32.5944042  49.3823385
  37.6459789  32.7960205  48.3964205  37.0325756  33.4680867  50.2780867
  37.7132773  33.8623738  51.0325956  36.4708352  34.6149921  49.5057249
  35.8549571  34.0759778  48.7858248  35.7770324  35.1517439  50.1527452
  37.4080324  35.6036973  48.8747787  38.6692810  35.8072066  49.4543362
  38.9524269  35.2277637  50.3206348  39.5380306  36.8067694  49.0582609
  40.5141783  36.9328237  49.5028305  39.2159319  37.5906467  47.8983974
  39.9077630  38.2646775  47.4152231  37.9908657  37.3175645  47.2267199
  37.7682257  37.8257298  46.3001108  37.0840144  36.3597083  47.7091265
  36.1330914  36.1570644  47.2389364  35.9429216  32.8406763  51.0952330
  35.5855727  33.2485032  52.1668768  35.3345776  31.7666411  50.5185890
  35.7062984  31.4941311  49.6198893  34.3523693  30.8969808  51.1543131
  33.7785435  31.4685893  51.8837595  33.2886600  30.2688193  50.1999331
  33.6864591  29.7105122  49.3524981  32.7826238  29.5652246  50.8609819
  32.2228241  31.1419868  49.7469902  31.4459157  31.6332960  50.5124044
  32.1173930  31.5887618  48.5431862  31.4173841  32.2761679  48.3032703
  32.8186083  31.2890172  47.8809547  35.0040507  29.7992086  52.0460892
  34.2520905  29.3230224  52.9093742  36.3046479  29.4185901  51.8590975
  36.8623996  30.0350666  51.2855339  37.0985913  28.6845446  52.8243828
  37.2404051  29.3730760  53.6573982  36.3699174  27.4590349  53.3975601
  36.9864154  27.0546865  54.2003870  35.4738641  27.6987100  53.9700556
  36.0979295  26.3180518  52.3660278  35.6174946  26.6833019  51.4583492
  37.0153809  25.8070993  52.0739508  35.1871037  25.2391839  53.0328083
  35.7242441  24.7888136  53.8675261  34.2637706  25.6122088  53.4759998
  34.8989511  24.1987610  52.0989656  35.2985263  23.2838702  52.2519827
  34.1610122  24.1671944  51.0240316  33.5168934  25.2003574  50.6282520
  33.4383464  25.9878969  51.2557125  32.9615068  25.0973392  49.7909737
  34.0847754  23.1058002  50.3197622  34.7069025  22.3166037  50.4209089
  33.2357478  23.0010700  49.7828436  38.5527921  28.2902598  52.3393679
  38.6774206  28.0517340  51.1579084  39.5530462  28.3985329  53.1872320
  39.3084049  28.7561226  54.0995789  40.9828377  28.1823039  52.9036140
  41.1687660  28.7455678  51.9891357  41.9401979  28.7972021  53.9723539
  42.9660177  28.5363388  53.7120867  41.7905569  30.2837229  54.0397072
  41.8959713  30.7584190  53.0641794  40.8224583  30.4981565  54.4923735
  42.5258970  30.7607532  54.6876431  41.7021799  28.3113337  55.2172422
  41.8468618  27.3627543  55.2466154  41.5052938  26.7370343  52.6802206
  42.5527954  26.5770507  52.0558691  40.6368303  25.8326387  53.1160307
  39.7909021  26.1367202  53.5765171  40.8310270  24.3913960  53.0527353
  41.8575907  24.3061304  53.4091043  39.9082017  23.8376808  54.1917706
  40.0391006  22.7687001  54.3598413  40.2558756  24.3179131  55.1064301
  38.5632658  24.0871692  53.9289951  38.0377269  23.8074398  54.6820974
  40.6659031  23.6962318  51.7035389  39.9953222  22.6876998  51.4848757
  41.3629341  24.2699289  50.7002449  41.7008114  25.1913238  50.9389305
  41.4961481  23.7434435  49.3831444  40.4803038  23.4091854  49.1723633
  41.9285250  24.9175453  48.4693909  42.7316332  25.4003787  49.0261555
  42.3309994  24.5898843  47.5108719  40.8570433  25.9911084  48.3270407
  40.3241396  25.9402704  49.2765379  41.3664770  27.4255300  48.1428957
  41.7241049  27.8484607  49.0816879  42.2262239  27.4575758  47.4736357
  40.5254889  28.0398583  47.8212690  39.9410343  25.5321050  47.2038126
  39.2483187  26.3409781  46.9714880  40.4741383  25.2593303  46.2930489
  39.3389463  24.6773458  47.5119972  42.4633503  22.5493336  49.1841745
  43.4466839  22.4370432  49.9497700  42.2276068  21.7258000  48.1204557
  41.1694670  21.8266320  47.0803690  41.6388607  22.3742700  46.2631416
  40.2498055  22.2834611  47.4459267  40.9219599  20.4271841  46.6525364
  40.5780315  20.4131389  45.6183147  40.1847601  19.8721111  47.2326469
  42.2700310  19.7875214  46.7009735  42.9361963  19.9149549  45.8476925
  42.1726322  18.7077689  46.8138742  42.9171801  20.4567552  47.9767323
  42.8058481  19.8212612  48.8552809  44.4404507  20.6041694  47.7154493
  45.2327824  19.6932495  47.9184151  44.9037695  21.7951202  47.2954416
  44.1642904  22.4820614  47.2582293  46.3103247  22.1553087  47.2033405
  46.9235086  21.3035631  46.9089890  46.3715553  23.0602503  45.9577751
  47.4060774  23.2536483  45.6741190  45.9418964  22.5784326  45.0795126
  45.6438017  24.3792987  45.9954357  45.9135008  25.4977059  46.7057085
  46.7711544  25.5498099  47.3600149  44.9679756  26.5112662  46.4739466
  44.9789190  27.3825693  46.9846439  44.1381931  26.1605620  45.4723883
  42.9495001  26.7656946  44.9841070  42.5981331  27.7359509  45.3027678
  42.0319653  26.0034251  44.2051888  41.0776281  26.3298225  43.8190460
  42.3722029  24.6579218  43.9460087  41.6719294  24.0202570  43.4269714
  43.5564899  24.0763211  44.4109535  43.7047052  23.0103898  44.3202543
  44.4361544  24.7713518  45.2893400  46.9467020  22.8498197  48.4478045
  48.1550646  23.0098629  48.4373379  46.2755108  23.1056046  49.5877981
  45.2797318  22.9375315  49.5713091  46.9812775  23.5597515  50.8332920
  47.8046179  24.2252564  50.5738544  45.9987020  24.4018984  51.7118740
  45.1202679  23.8355231  52.0211887  46.5405178  24.7375417  52.5961161
  45.4973936  25.6736183  51.0386705  45.0393391  25.4390407  50.0778055
  44.8095608  26.1927581  51.7061234  46.5065098  26.8228531  50.7370949
  47.2813988  26.7868185  49.7957182  46.5348816  27.8472996  51.5344286
  47.3040390  28.5012388  51.5050745  45.9912920  27.7273059  52.3771667
  47.4695826  22.3593187  51.6219378  46.9523191  21.2760830  51.4921188
  48.4065342  22.5072289  52.5898790  48.8150787  23.4260631  52.6844311
  48.9780378  21.5047336  53.5144997  49.7595596  21.9533348  54.1277552
  48.1886339  21.1305761  54.1663885  49.7712374  20.2537990  52.9069281
  50.0806046  19.3981874  53.7107038  50.1071739  20.4079652  51.6116714
  49.5618916  21.0885501  51.1021852  50.9774113  19.4222069  50.8910990
  50.4712677  18.4573972  50.9235811  51.1345530  19.9609172  49.4562769
  51.6443634  20.9239864  49.4300079  51.8662167  19.3421018  48.9368200
  49.7793865  20.1001096  48.6263704  49.0491962  20.7010126  49.1684341
  50.1030922  20.7589769  47.2434521  50.7746553  21.5808439  47.4917364
  50.3983498  20.0642991  46.4570999  49.1415071  21.2067819  46.9925976
  49.1941357  18.7557948  48.3745670  48.3392334  18.6968064  47.7009487
  49.8608446  18.0314755  47.9066372  48.8774681  18.3925307  49.3522501
  52.3394680  19.3059456  51.6227055  52.6313829  20.1154995  52.4722528
  53.2107258  18.3005083  51.3508987  52.9167032  17.6107681  50.6742096
  54.5665503  18.1618321  51.9208860  54.7757769  18.7410998  52.8202057
  55.0012112  16.7313659  52.3107719  54.8271465  16.1362016  51.4143467
  56.0760069  16.6632462  52.4789047  54.1864777  16.0048485  53.4082079
  54.2056370  16.6552961  54.2826509  53.1673717  15.9650922  53.0235815
  54.6217728  14.5029008  53.7551451  54.5692635  14.0158927  52.7814054
  55.6441402  14.4954872  54.1330528  53.6666489  13.8549852  54.7715044
  53.8264561  14.4243121  55.6871605  52.6078987  13.8825512  54.5138454
  54.0281582  12.4243343  54.9800777  53.7856150  11.9071317  54.1471434
  54.9938726  12.3404026  55.2637053  53.5642529  12.0862210  55.8110809
  55.5625677  18.7397742  50.8984518  55.6377411  18.1929183  49.7930622
  56.3286924  19.7385919  51.2380123  56.2352133  20.1994705  52.1318531
  57.4384117  20.1921439  50.4451036  58.0251217  19.3818843  50.0122643
  56.8559694  21.0763359  49.3662930  57.7064514  21.4664555  48.8071918
  56.2335205  20.4303861  48.7471008  56.2471294  21.8605947  49.8161268
  58.3694744  21.0803509  51.3462114  57.9693937  21.6799140  52.3382330
  59.6601772  21.1876416  50.8764839  59.9105501  20.6398368  50.0657320
  60.7128477  22.0098734  51.4656734  60.4835320  22.2274160  52.5088358
  62.0606518  21.2824774  51.4333200  62.3192406  21.2717366  50.3744936
  62.7021217  21.9386888  52.0215416  62.0345402  20.2459645  51.7695665
  60.7558632  23.4798765  50.9475803  61.1302471  24.3302345  51.7577744
  60.5117464  23.7265277  49.6813488  60.3958559  22.9460192  49.0508890
  60.8643293  25.0246334  49.0125084  61.0945320  25.7341647  49.8072863
  62.1130705  25.0329161  48.0831432  62.3153782  26.0835433  47.8749228
  63.3256578  24.3956375  48.7458181  63.3455896  24.9494576  49.6844244
  63.1117535  23.3616042  49.0162230  64.2208624  24.5558763  48.1449509
  61.8690348  24.3080926  46.9189548  62.6773834  24.0593433  46.4647579
  59.6086931  25.6483030  48.4456015  58.6332703  25.0160456  48.0232620
  59.7209978  26.9708419  48.1776381  60.5529594  27.4373865  48.5097170
  58.7184811  27.8182673  47.4104261  57.7656603  27.8389096  47.9394007
  59.1945982  29.2246509  47.3804569  59.4238901  29.5032096  48.4090137
  60.0724983  29.3820500  46.7538548  58.0409145  30.1075268  46.9103813
  57.8950882  29.9252319  45.8456755  57.1434498  29.8524904  47.4739599
  58.4420872  31.6032076  47.0382690  58.5465860  31.8137455  48.1026268
  59.4273138  31.7669678  46.6016722  57.4555397  32.6287293  46.4477682
  56.9982815  32.3020029  45.5138159  56.6009665  32.6870298  47.1218681
  58.0221224  33.9579678  46.2145472  58.3665371  34.0898204  45.2742815
  57.3277473  34.6899772  46.2604427  58.7432384  34.1168284  46.9036484
  58.4868670  27.1507049  46.0108709  57.3408604  26.7963147  45.7302856
  59.4902802  26.9046521  45.2063227  60.4300547  27.1250868  45.5035162
  59.3088961  26.3145018  43.8602686  58.6430359  26.9503403  43.2767868
  60.6837893  26.3759184  43.2509184  61.0001087  27.4150395  43.1599712
  61.4226675  26.0283327  43.9729595  60.9233570  25.6159520  41.9392109
  61.9576883  25.7101250  41.6084671  60.8476686  24.5454931  42.1302271
  60.0282097  25.9311485  40.7828474  59.0055180  26.1181259  41.1103296
  60.4049730  26.8286896  40.2923679  60.0800419  24.7864699  39.7725892
  61.0833025  24.3633008  39.7226572  59.3582630  24.0874672  40.1951218
  59.5403147  25.1572204  38.4425974  58.5452747  25.3303671  38.4381914
  60.1226759  25.8845878  38.0528593  59.6598387  24.3225241  37.8866267
  58.6413717  24.9644899  43.9214563  57.8584814  24.7687745  43.0244303
  58.8635921  24.1350317  44.9564981  59.4212675  24.4812965  45.7240915
  58.2558727  22.8662658  45.1335716  58.2880354  22.3374367  44.1809893
  58.9630842  22.0998096  46.3271236  59.0817738  22.7840781  47.1672344
  58.2903337  21.2978768  46.6311121  60.3718901  21.5365458  45.9729195
  60.2417803  20.7318783  45.2492571  60.9841681  22.3699045  45.6283426
  61.0971212  20.9200144  47.1748257  60.7490444  21.1956000  48.3078384
  62.1682882  20.2090359  47.0708656  62.6848793  20.0102210  47.9156780
  62.4242449  19.9816060  46.1206770  56.7785931  23.0175686  45.5282259
  55.9339905  22.3746419  44.9004078  56.4717865  23.9974260  46.3802671
  57.2203684  24.4748616  46.8617010  55.0534010  24.3038940  46.7763948
  54.6804810  23.4171438  47.2889519  54.7961092  25.5454874  47.7383184
  55.4504204  26.3835454  47.4982405  53.7580967  25.8634686  47.6407766
  55.0475597  25.1303935  49.1493225  54.4454956  24.2765832  49.4601679
  56.1113405  24.9261618  49.2708349  54.6931314  26.2783623  50.0325584
  55.2499962  27.1586800  49.7115564  53.6531687  26.6019917  49.9896431
  55.2411318  25.9033370  51.4402962  56.1508465  25.3388166  51.2357569
  55.5449057  26.7532849  52.0513725  54.2823887  25.1429892  52.3039675
  53.4269571  25.6759810  52.3692513  54.0284157  24.2832136  51.8387938
  54.6532393  24.9706125  53.2274675  54.3315268  24.4499588  45.4514599
  53.3400917  23.7972045  45.1745033  54.8785448  25.3098512  44.5647192
  55.7437897  25.7873392  44.7731829  54.2660999  25.6459212  43.2559395
  53.3208752  26.0778546  43.5847044  55.1564837  26.7243600  42.6137686
  55.5875015  27.4587393  43.2942104  55.9945345  26.2652779  42.0893431
  54.4294310  27.5130677  41.6006613  54.6998072  27.3214698  40.2058268
  55.3014660  26.5020704  39.8411393  54.3110847  28.3056760  39.2383480
  54.6885729  28.2210994  38.2300043  53.5805607  29.4754338  39.7100115
  53.3082485  30.4282379  38.7831712  52.5443935  30.1965451  38.2498312
  53.3487225  29.6391082  41.1096859  53.1109858  30.6279969  41.4729786
  53.8100243  28.7230825  42.0333242  53.6795855  28.9541936  43.0802155
  54.1024637  24.3401122  42.4320841  53.0164480  24.0734601  41.9199419
  55.1562881  23.5111427  42.2132969  56.0346794  23.7466526  42.6526880
  55.0503683  22.2481799  41.3976765  54.7586012  22.5240231  40.3843260
  56.4120626  21.5932202  41.3801861  57.0151711  21.7437029  42.2755718
  56.3959694  20.5457807  41.0790062  57.3474932  22.1312022  40.2794838
  57.4872351  23.2021022  40.4269600  58.3017015  21.6098452  40.3555059
  56.9176292  22.0414567  38.8065481  56.2245846  21.0780621  38.4318686
  57.4788618  22.8347397  37.9677796  54.0145111  21.2811303  41.9664240
  53.3564091  20.5988669  41.1699438  53.8577986  21.2095690  43.3101130
  54.4619656  21.7206478  43.9377165  52.9032373  20.2643180  43.9063549
  52.7881336  19.3269873  43.3620548  53.2549191  19.9174571  45.3861094
  53.2862091  20.8502817  45.9491014  52.5456381  19.1435242  45.6794453
  54.6262884  19.2158043  45.1479959  54.5793867  18.5300100  44.3020725
  55.4456186  19.8626781  44.8343897  54.9830627  18.4425509  46.4451170
  55.5812311  19.1321909  47.0406771  54.0930843  18.3270836  47.0637512
  55.6290007  17.1042144  46.2342930  54.7999239  16.4568734  45.9485006
  56.3952732  17.1481574  45.4603386  56.1410618  16.5535522  47.5172997
  56.9767618  17.0458245  47.7990294  55.4287434  16.7288029  48.2115507
  56.4214802  15.5902696  47.4008799  51.4354563  20.8117175  43.8474417
  50.4970694  20.0715399  43.6434698  51.2191534  22.1420527  43.9696980
  51.9899511  22.7666426  44.1590548  49.9882221  22.7699566  43.6283302
  49.1645145  22.4563050  44.2696095  50.1491594  24.3039608  43.8151217
  51.0295057  24.6487141  43.2726908  48.7622356  24.9095345  43.2943249
  48.7075377  25.9670544  43.5527134  48.6835051  24.8900986  42.2073460
  47.9253292  24.2602968  43.5515785  50.2422571  24.7282171  45.2818489
  49.2489767  24.7146749  45.7305288  50.9305573  24.0795684  45.8236980
  50.8505964  26.1077881  45.5468988  50.7796192  26.2997532  46.6175127
  51.8329334  26.1448646  45.0760031  50.1921940  26.8252659  45.0571632
  49.5039082  22.4581385  42.1876860  48.3876181  22.1422219  41.9252253
  50.3528976  22.6448059  41.1427307  51.2795877  22.8515077  41.4871502
  50.0094509  22.4070263  39.7403741  49.1623688  23.0675077  39.5551324
  51.2373066  22.7227330  38.8987732  51.5343046  23.7674737  38.9904737
  52.1035433  22.1542072  39.2371607  50.9820080  22.4425650  37.4598360
  50.3115559  23.0743599  37.1897817  49.5347834  20.9597063  39.4943905
  48.4088278  20.7589722  39.0794945  50.3862667  19.9843585  39.8947096
  51.3367987  20.2796197  40.0662088  50.0591612  18.5376680  39.8382950
  49.6837282  18.2094371  38.8690615  51.1584854  17.7001226  40.5363655
  52.1264839  17.8735876  40.0662708  51.1632109  17.9576707  41.5954924
  50.9170723  16.1799634  40.4368210  50.0291014  15.9900272  41.0397577
  50.9341812  15.8630204  39.3940592  52.1591330  15.4839206  41.0366488
  53.1649542  15.1984608  40.3794527  52.0705891  15.2368188  42.2518492
  48.7041712  18.3438313  40.5390310  47.8284454  17.6397347  40.0360441
  48.5745382  18.7665546  41.8243027  49.3289948  19.3139780  42.2131777
  47.3818302  18.4681249  42.6454496  47.3458099  17.3813534  42.5697517
  47.4079990  19.0427697  44.0664577  48.3787584  18.7419605  44.4604683
  47.3930120  20.1300120  43.9904261  46.2274027  18.5533500  44.9800158
  46.5538931  18.7181842  46.0068226  45.3064775  19.0942681  44.7622919
  45.8539724  17.0440972  44.8718405  44.9832773  16.9981754  44.2177105
  46.6288757  16.3912308  44.4701004  45.3820372  16.4978325  46.2101746
  46.2710381  16.3195539  46.8151474  44.8341656  17.2385192  46.7926884
  44.7308588  15.1982152  45.9737587  43.8491917  15.2069235  45.4811192
  45.3720284  14.7783053  45.3159809  44.7909832  14.6739686  46.8349504
  46.1778164  18.9427543  41.8560410  45.2798891  18.1092584  41.5698099
  46.1015463  20.1826048  41.3132286  46.8819952  20.8175898  41.4014959
  44.8833704  20.6235075  40.5753660  44.0014935  20.5463409  41.2113190
  44.9746084  22.1088719  40.1781702  45.8687544  22.3834467  39.6185207
  44.0500641  22.3020864  39.6341228  44.8848629  23.1388187  41.3436699
  43.9010477  23.0030656  41.7928648  45.6720638  22.8772354  42.0507717
  45.0830078  24.5887685  40.9434843  45.2651453  25.2253509  41.8093300
  45.9074593  24.7595453  40.2512264  43.7857056  25.0178504  40.2030611
  43.6600637  24.3508554  39.3501663  42.8976059  24.8016906  40.7969046
  43.7349606  26.4676714  39.7826958  44.5036888  26.7695928  39.2013144
  42.7950430  26.6726518  39.4750619  43.7628508  27.0732069  40.5905628
  44.5776129  19.8941326  39.2869711  43.4272623  19.6276021  39.0043163
  45.5778217  19.6120036  38.4841347  46.5170574  19.9066412  38.7102509
  45.4690218  18.8321650  37.2531772  44.6839523  19.1948664  36.5896916
  46.8524027  19.0761566  36.5879750  47.0566797  20.1436591  36.5054655
  47.5999260  18.6651409  37.2664857  47.2366667  18.5311842  35.1954007
  47.5023508  17.4750936  35.1486588  46.2590837  18.5322821  34.7132874
  48.5421658  19.3987465  34.2904973  49.9993753  19.1968143  35.3373027
  50.8608532  19.5506430  34.7709489  49.7992754  19.8193467  36.2093759
  50.1968384  18.1586063  35.6041956  45.3183985  17.3115599  37.3951507
  45.2804708  16.5470243  36.4197445  45.2672434  16.8447351  38.6557484
  45.3637838  17.4555480  39.4543028  44.9991465  15.4649842  39.0201950
  44.6760416  14.9296725  38.1273603  46.1960077  14.7799551  39.6262693
  46.0059357  13.7075925  39.6710014  47.0216227  14.8517501  38.9182377
  46.5910816  15.3637755  40.8420801  46.9909477  16.1948144  40.5754614
  43.7320852  15.4652452  39.9622917  43.4414816  14.4732797  40.6939077
  42.9104280  16.4811301  39.9572682  43.1272650  17.2415638  39.3289185
  41.6048622  16.6041839  40.7744217  41.4518785  15.6898797  41.3477850
  41.7073011  17.7513671  41.7476463  41.9729567  18.6870301  41.2556458
  40.4440117  17.8509903  42.6280212  40.5953455  18.4498954  43.5260773
  39.6024728  18.3315969  42.1290874  40.1803350  16.8594301  42.9959679
  42.7242517  17.4838674  42.6940775  43.6228704  17.5991213  42.3765850
  40.4097319  16.8101549  39.8102999  40.1511621  17.9477239  39.3134570
  39.5680213  15.7794309  39.5895815  39.9437094  14.3416262  39.6856260
  39.8885298  13.9744508  40.7104397  40.9839916  14.2179894  39.3845701
  39.0901494  13.5167420  38.7265611  38.9097476  12.5236320  39.1380072
  39.6426058  13.3894503  37.7955985  37.8813696  14.3713295  38.6821675
  37.2804809  14.1847074  39.5722270  37.2909403  14.2180002  37.7788496
  38.3388424  15.8499539  38.7471032  38.5170317  16.2339544  37.7426648
  37.2023940  16.8995655  39.1383433  37.0981860  17.1453404  40.3235054
  36.4190888  17.4519753  38.1916118  36.5039849  17.1091640  37.2453713
  35.4863477  18.6255336  38.4262657  36.0694742  19.4366431  38.8623428
  34.7709990  19.1723180  37.1063638  34.0615797  18.4600234  36.6850996
  34.1832948  20.5665731  37.3380303  34.9277973  21.2107491  37.8058553
  33.8810182  21.0372758  36.4025259  33.2753754  20.4429626  37.9283714
  35.9591198  19.5344710  36.2206030  36.2550521  18.5603082  35.8313298
  35.6117177  20.0580049  35.3299141  36.7733717  20.0533700  36.7264152
  34.4244266  18.2693183  39.4725609  34.0197277  19.1319788  40.2660513
  33.9830375  16.9950032  39.5714355  34.1913867  16.3882101  38.7913752
  33.0651951  16.4881206  40.6565142  32.1733737  17.1119940  40.7159805
  32.4192595  15.0806987  40.3631353  31.6911125  15.1892638  39.5593238
  33.2256722  14.4901395  39.9283457  31.8107820  14.3552494  41.5670061
  31.5777683  13.3301318  41.2790203  32.5594306  14.2388046  42.3506260
  30.4865694  14.9990845  41.9604206  29.9746895  15.7720232  41.1413670
  29.9922991  14.7420657  43.1131029  33.6396575  16.6166759  42.0654917
  33.1539559  17.2303724  43.0380630  34.8495197  16.1304927  42.2150230
  35.1664233  15.5965471  41.4184189  35.7067943  16.1884904  43.4125423
  35.0529861  15.8675539  44.2234898  36.9059515  15.2678478  43.2194996
  37.4174953  15.5709219  42.3059559  37.8984284  15.4280972  44.3423414
  38.6030364  14.6003151  44.2622900  38.4779334  16.3499033  44.2918539
  37.3553729  15.3860486  45.2864981  36.5459609  13.8371670  42.9304647
  37.5160170  13.3579719  42.7983141  35.9562969  13.4249425  43.7492895
  35.9567404  13.7553656  42.0171022  36.0832906  17.6442635  43.6148834
  36.1297512  18.0863142  44.7375154  36.3798380  18.4441650  42.6074982
  36.3613534  18.0274308  41.6876650  36.7291784  19.8435760  42.6563883
  37.6291990  19.9766159  43.2566929  36.9735861  20.3356600  41.2291861
  37.5854874  19.5913851  40.7195425  36.0491800  20.5189514  40.6814766
  37.6871562  21.6928458  41.0271931  37.1132731  22.4857068  41.5069103
  39.1042233  21.7207885  41.5742493  39.6256590  22.6746583  41.4946365
  39.0512943  21.3804698  42.6084089  39.6858311  21.0324049  40.9610939
  37.7212572  22.0881176  39.5569348  38.1988478  23.0628085  39.4569898
  38.3689189  21.4122868  38.9984632  36.7234516  22.1128774  39.1188955
  35.6953192  20.7036471  43.2988501  36.0418034  21.6204786  44.0168762
  34.3814492  20.3908467  43.0164862  34.2028642  19.5985687  42.4160671
  33.1995225  21.1171317  43.3836174  33.5580349  22.1320534  43.5553789
  32.2175097  21.1273575  42.2719812  31.9687700  20.0790524  42.1067905
  31.3082361  21.6991401  42.4574089  32.8954268  21.8710041  40.7928991
  33.6769009  20.8168840  40.5418444  32.4525476  20.5751276  44.5940208
  31.3260841  21.1091113  44.8391819  32.9494476  19.5162630  45.2552986
  33.7503552  18.9971793  44.9248409  32.3374605  19.0211427  46.4435101
  31.3219428  18.7466955  46.1580181  33.1688786  17.8365564  46.8351316
  33.5968113  17.3278010  45.9713411  34.0717793  18.1730962  47.3446560
  32.5512695  16.6474187  47.6283455  33.3116698  16.1856008  48.2581186
  31.8327284  17.0361853  48.3499146  31.7403030  15.6815445  46.7465591
  31.1384058  15.1242673  47.4643803  31.0256124  16.1955392  46.1038113
  32.6550293  14.7960651  45.9131670  33.3068895  15.3993893  45.2813625
  33.3273602  14.2041004  46.5341759  31.9037819  13.8572395  45.1134777
  31.4262390  14.3415403  44.3668127  32.4924636  13.1557047  44.6875620
  31.2215710  13.3868921  45.6909466  32.2771335  20.1008272  47.5160265
  33.1478357  20.9726167  47.6053143  31.2483382  20.0135922  48.3693218
  30.5473828  19.2915416  48.2832527  30.9849381  20.9729505  49.4217348
  30.1429200  20.5790353  49.9908876  31.8749738  20.9175229  50.0485277
  30.7340932  22.4278474  48.9786959  31.4086843  23.2900524  49.5182085
  29.8797822  22.7383184  48.0249882  29.3493700  21.9553995  47.6702976
  29.3956876  24.0634823  47.5370884  29.4085860  24.6890211  48.4296322
  30.3396440  24.4472003  46.3785791  30.3485394  23.6659384  45.6185484
  30.0222492  25.2797389  45.7506895  31.7989135  24.7917891  46.7481899
  32.0956683  26.0712051  47.1347475  31.2675786  26.7639947  47.1615362
  33.3317280  26.5401268  47.5157785  33.4718299  27.5659728  47.8230476
  34.3744516  25.6236863  47.4406099  35.3986907  25.8587456  47.6897764
  34.2302489  24.3589807  46.8589211  35.0217509  23.6735368  46.5941715
  32.9072475  23.9248300  46.5104771  32.7718782  22.9142499  46.1543798
  27.9479980  23.9476061  47.0327902  27.5005293  22.8603411  46.5578508
  27.0968366  24.9965143  47.1733713  27.5843573  26.2957406  47.7345467
  28.5174370  26.6469955  47.2940016  27.6048231  26.2333918  48.8225698
  26.5036654  27.3025227  47.2717190  26.7434001  27.6157570  46.2555933
  26.3494658  28.1494546  47.9403162  25.2753758  26.3847709  47.0951414
  24.5882726  26.8557453  46.3921642  24.7625899  26.2550879  48.0482054
  25.7449222  25.0728083  46.6542864  25.0600743  24.3040657  47.0122242
  25.7046485  24.9607015  45.0782585  26.6863132  25.1813531  44.3194389
  24.5694184  24.4490361  44.6178246  23.8086486  24.5348430  45.2765846
  24.3196869  23.9884901  43.1964397  24.9676609  23.1417799  42.9699135
  22.8982663  23.4484506  43.1022501  22.6644897  22.6990771  43.8584805
  22.1554828  24.2417073  43.1866074  22.8330874  22.9166031  42.1530437
  24.4857526  25.0613976  42.1541548  25.0562763  24.7643471  41.0581923
  24.1102386  26.3264728  42.4596119  23.6411786  26.5499234  43.3257246
  24.5560431  27.4777055  41.6865635  24.2707109  27.3640585  40.6407309
  23.7131047  28.7041044  42.0010853  23.7955284  28.7113810  43.0879354
  24.2703915  29.5275474  41.5544558  22.1960568  28.7926054  41.5663767
  21.7072058  29.7211409  41.8612432  22.1627545  28.8102388  40.4770279
  21.3627148  27.5977159  42.0194244  21.3576508  27.3695421  43.2093477
  20.7669044  26.8920565  41.1807966  26.0520005  27.8158021  41.7798090
  26.6314769  28.2648301  40.7798243  26.7289209  27.4861670  42.8463888
  26.3069606  26.9813132  43.6126566  28.2038403  27.5672030  42.8184891
  28.5167289  28.3987737  42.1870708  28.7888265  27.9114127  44.1844416
  28.2314777  28.7004399  44.6893167  28.8277102  27.0858121  44.8950577
  30.1403379  28.4807396  44.2319012  30.2579212  29.8679328  44.1388512
  29.4855762  30.6141829  44.0248537  31.5360451  30.3358126  44.2623281
  31.7453051  31.3949203  44.2923975  32.6270676  29.4904208  44.4792604
  33.5252547  29.9903512  44.8105145  32.5658369  28.0781555  44.3546867
  33.4536886  27.4660850  44.2956066  31.2707686  27.5711799  44.2478752
  31.1836600  26.4986277  44.1559935  28.8980436  26.4577532  42.0474672
  29.7010326  26.7936754  41.1785984  28.6342335  25.1640415  42.3266411
  28.0044174  24.9450231  43.0852365  29.0692592  24.1092658  41.4027691
  30.1542091  24.2035604  41.4486217  28.5122657  22.7358627  41.8609810
  28.8751435  22.4163461  42.8378820  27.4242115  22.6860166  41.9028997
  28.8700724  21.9596767  41.1845160  28.7508607  24.3558979  39.8839355
  29.6241736  24.1509342  39.0248084  27.5265408  24.7573400  39.4821000
  26.8594670  24.9471283  40.2163267  27.1856880  25.1164412  38.1040668
  27.3633552  24.2902541  37.4156260  25.6912279  25.5116487  38.0532765
  25.1861262  24.5981002  38.3669686  25.3567386  26.3204384  38.7029576
  25.1850605  25.9082842  36.6714334  25.5903935  26.9053221  36.4990330
  25.5257916  25.2091384  35.9077549  23.4030008  25.9688973  36.4809895
  23.0561376  24.1863155  36.4767480  23.4629536  23.7272120  35.5757356
  23.4625101  23.7731409  37.3999214  21.9728827  24.0799999  36.5347004
  28.0814624  26.1986756  37.4940562  28.5858870  26.0932302  36.3604808
  28.4928226  27.2185564  38.2872152  28.1273127  27.3469472  39.2199636
  29.5011020  28.2702804  37.8489184  29.0736771  28.7742949  36.9820952
  29.5967507  29.5097280  38.8968492  28.6637783  30.0692821  38.8293076
  29.7322059  29.0742421  39.8868513  30.7085943  30.4511094  38.6897993
  32.0686579  30.2280974  39.0068364  32.3849797  29.3223095  39.5027089
  33.0941653  31.1061978  38.5535049  34.1520715  30.9373641  38.6903477
  32.7376699  32.3272014  37.9988289  33.7801409  33.0880713  37.4939728
  34.5356488  32.5038767  37.3963475  31.4390254  32.5901127  37.7024961
  31.1927819  33.3715200  36.9988155  30.3957200  31.7305350  38.0687094
  29.3523073  31.9127154  37.8577614  30.8604336  27.7609873  37.6194811
  31.4050698  27.9179764  36.5111017  31.3498139  26.8945742  38.4982753
  30.8665514  26.7946100  39.3795061  32.6415563  26.2667656  38.2529593
  33.3614540  27.0408583  37.9872012  33.1069183  25.4355550  39.5069361
  32.4433637  24.5801139  39.6334863  34.0886831  25.0069737  39.3055511
  33.2014918  26.1565685  40.9135246  32.2072768  26.5609717  41.1035204
  33.5398388  25.1539040  42.0622015  34.5526338  24.7799683  41.9121313
  33.5867286  25.5680633  43.0693626  32.8198433  24.3357682  42.0814657
  34.2330623  27.2244453  40.9942245  35.2659392  26.8952179  40.8807468
  33.9882731  28.0690718  40.3501844  34.1289234  27.7526331  41.9420004
  32.5599456  25.3826475  36.9636536  33.3708930  25.4736900  36.0944462
  31.5584445  24.4577146  36.8362093  30.8534598  24.4769549  37.5592089
  31.4279842  23.5646605  35.7237220  32.3861122  23.0751038  35.5492902
  30.2711129  22.5569320  35.9521985  29.3478036  23.0022788  36.3226962
  29.9661803  22.0770645  35.0222301  30.5896091  21.3598752  36.9150877
  31.0921645  20.3352237  36.5003037  30.2060294  21.4623713  38.1622458
  30.1535964  20.6457686  38.7542844  29.8615146  22.3643756  38.4585571
  31.2475657  24.2693281  34.3722129  31.9186258  23.8335991  33.4342051
  30.5082273  25.3237677  34.3418646  30.1117015  25.7483292  35.1680684
  30.3356981  26.2010384  33.1525517  30.0877452  25.5256701  32.3337126
  29.1676068  27.2353411  33.3089542  28.2707882  26.6518211  33.5171008
  29.3199944  27.7774334  34.2422366  28.9493728  28.1950712  32.0909595
  27.8906965  27.9920268  31.2392545  27.1787095  27.1949196  31.3944840
  27.6741672  28.8129878  30.1544642  26.8342805  28.5257006  29.5392752
  28.4539104  30.0044346  29.9314523  28.3274984  30.7952642  28.7899208
  28.1083584  30.2365851  28.0406165  29.5743847  30.1264238  30.7700515
  30.2384543  30.9230113  30.4686189  29.8368883  29.2963791  31.8671107
  30.7037282  29.5038199  32.4769950  31.6376352  26.8621945  32.7250743
  31.9431114  26.8852520  31.5381169  32.3474813  27.3801708  33.7248373
  31.9575524  27.5957108  34.6312571  33.6909127  27.8831506  33.4985065
  33.5951877  28.5514617  32.6427603  34.2051768  28.7616801  34.7014642
  34.2686772  28.1605458  35.6084967  35.1332974  29.2326546  34.3776226
  33.0719137  30.1652122  35.0701761  32.3847294  29.3590307  35.8842659
  34.7309613  26.8007278  33.1081390  35.5749917  27.0601201  32.2801089
  34.7411585  25.5770802  33.6706161  34.0283275  25.4131651  34.3671083
  35.5089331  24.4105434  33.2755375  36.5238929  24.8046780  33.2244277
  35.3705883  23.2455540  34.3100142  34.3118644  23.1141925  34.5335102
  35.7971239  22.3274064  33.9060664  36.1307931  23.5045195  35.6501365
  36.0471511  24.5366406  35.9904766  35.6376600  22.9172707  36.4247704
  37.5845313  23.0187273  35.7187772  37.9852700  23.3121967  36.6890264
  37.5949764  21.9304204  35.6589437  38.4134793  23.6624193  34.6916747
  38.6091352  24.6473026  34.8004222  38.9208102  23.1776094  33.6076927
  38.8284254  21.9260240  33.2341576  38.2661843  21.2426639  33.7209892
  39.2993546  21.7124486  32.3665667  39.6975589  23.9996123  32.9867482
  39.8657084  24.9260187  33.3522582  40.1197290  23.7067938  32.1171880
  35.1502705  23.9291406  31.8821073  36.0299778  23.4036994  31.1611724
  33.9211106  24.1214395  31.3093996  33.2523513  24.6045518  31.8920374
  33.4100533  23.5052299  30.0694561  34.0289879  22.6162720  29.9478960
  32.3920560  23.2062888  30.3192878  33.3828139  24.3022346  28.7825179
  33.2029986  23.7611055  27.6742959  33.7664747  25.5900717  28.7990689
  33.8553214  26.0076284  29.7144151  33.6998725  26.4687324  27.6454282
  32.7528310  26.1326528  27.2232103  33.5512447  27.9938293  28.2436824
  32.9748750  27.9470086  29.1676450  34.5222640  28.4651756  28.3955169
  32.8492713  28.9113355  27.2543597  33.2605386  28.7637115  26.2557745
  31.3847351  28.8706231  27.2658920  30.9812546  28.8873243  28.2783270
  30.9165859  29.7262073  26.7791533  31.2059283  28.0367136  26.5871191
  33.2470489  30.3328562  27.6751184  34.3086267  30.4319835  27.4485517
  32.7972722  31.0581446  26.9970655  33.1239748  30.5082965  28.7438488
  34.7739315  26.2647986  26.6323733  35.9069896  25.8709240  27.0158219
  34.4432330  26.3232827  25.3753924  33.4994149  26.5881228  25.1321483
  35.4142857  26.3067293  24.2938352  35.9477091  25.3641534  24.4167590
  34.6224666  26.3482285  23.0162477  33.7350798  26.9710732  23.1289887
  35.2258205  26.7341256  22.1945715  34.1942096  24.9572110  22.5571561
  35.0808215  24.3239379  22.5885034  33.4538078  24.5586562  23.2507491
  33.5269094  24.8504901  21.1730456  33.2769442  23.7982512  21.0373592
  32.6132727  25.4334426  21.2893891  34.4003081  25.3782654  20.1227617
  35.0963902  26.0613680  20.3853369  34.3331528  25.0767565  18.8441956
  33.5423779  24.2268443  18.3052635  32.6497722  23.9876056  18.7128401
  33.7683463  23.9145041  17.3717284  35.1623392  25.5839658  18.0049753
  35.6902885  26.4100790  18.2476795  35.0827193  25.4330158  17.0094967
  36.4688039  27.4011254  24.4072032  36.2277699  28.4738374  25.0096369
  37.6160860  27.0991778  23.7829924  37.8282666  26.1527038  23.5014367
  38.6879969  28.0909252  23.5799789  39.0003657  28.4149933  24.5727062
  39.8072553  27.4828267  22.7947330  40.2520370  26.6057467  23.2648349
  39.3431139  27.1858144  21.8542743  40.9617567  28.4273529  22.5380850
  41.5823889  29.2293620  23.6085296  41.3208818  29.2510867  24.6561646
  42.7239799  30.0290775  23.3981538  43.2685423  30.4669523  24.2216325
  43.1387758  30.2149034  22.0619154  44.0814400  30.7376432  21.9945908
  42.5811577  29.4894671  20.9924173  43.0096531  29.6269441  20.0106382
  41.5388680  28.5787535  21.2073517  41.1734200  27.9733109  20.3910851
  38.2668400  29.3698335  22.8437805  38.5491920  30.4584789  23.3759904
  37.5288153  29.3338990  21.7615867  37.3287511  28.4513855  21.3129854
  37.0332289  30.4884052  21.0479403  37.7202439  31.3314605  20.9746838
  36.6209173  30.1397657  19.6216691  35.7009697  29.5612025  19.7057056
  36.4583182  31.1043644  19.1408253  37.7069402  29.2953348  18.8882136
  37.7223659  29.6054935  17.8433871  38.6804152  29.5057940  19.3311107
  37.4841118  27.7553844  19.0083897  36.8192697  27.2054386  19.9556541
  37.8706336  26.9764996  18.1243122  35.8032107  31.1199594  21.7635989
  35.6034851  32.3661327  21.6433287  34.9094844  30.4643607  22.4312425
  34.9189353  29.4546771  22.4546766  33.5626936  30.9442353  22.8368688
  33.1632280  31.3510251  21.9078660  32.7370191  29.7485089  23.4199381
  32.7838755  28.9455914  22.6842523  33.2464957  29.3941236  24.3160081
  31.2625217  30.0801611  23.7844515  31.3218760  30.5009794  24.7881889
  30.9668136  30.8086514  23.0294967  30.3909826  28.8557124  23.6016989
  29.5229912  28.5992932  24.4170833  30.5857849  28.1201315  22.6142073
  33.6459780  32.0305133  23.9524817  34.4743633  32.1400166  24.8567128
  32.6353312  32.8661299  23.8897610  31.9391704  32.7053595  23.1758857
  32.2723770  33.8708305  24.8322034  33.1316543  34.3896246  25.2571630
  31.5157557  34.9469733  24.0460587  31.4094591  35.8316612  24.6738601
  32.0212436  35.2877641  23.1424880  30.5334949  34.5574737  23.7785602
  31.3988256  33.3658814  25.9894228  30.3733873  32.7033901  25.8293891
  31.7633772  33.7128687  27.2314930  33.0715537  34.3287134  27.6191020
  32.9542136  35.3889680  27.3950720  34.0011597  34.0496445  27.1230602
  33.1151462  34.1543603  29.1404009  33.7179852  34.9296594  29.6132684
  33.5679054  33.1960559  29.3948865  31.6834259  34.1723871  29.6925092
  31.3122153  35.1726508  29.9156213  31.5049386  33.5319304  30.5562544
  30.9206271  33.5831833  28.4570861  30.7813644  32.5095367  28.5835195
  29.5876956  34.3099499  28.2394719  29.5865846  35.4604053  27.8058624
  28.4357119  33.6697388  28.6102653  28.4960842  32.6773763  28.7882447
  27.2732997  34.4414020  28.9801455  27.2592235  35.3334379  28.3539104
  25.9198976  33.6731791  28.8433504  25.8706021  33.3526278  27.8027177
  25.8189607  32.7957439  29.4821119  24.7488689  34.7150230  29.0277410
  24.9735022  35.9164310  29.2722583  23.5926914  34.2866182  29.0359116
  27.4793625  34.9291444  30.3961682  26.8832064  34.4225121  31.3230944
  28.1750607  35.9842515  30.5088758  28.5722828  36.3503647  29.6554828
  28.3507204  36.7227840  31.7544007  29.1056490  36.1423254  32.2847319
  28.8955522  38.1184626  31.4166832  28.2063293  38.6700273  30.7772684
  29.0717435  38.5693622  32.3932815  30.2209592  37.9868579  30.6814647
  31.3524532  37.6775932  31.4814210  31.2499189  37.5246406  32.5456119
  32.6502347  37.6046062  30.8858943  33.5539007  37.5420547  31.4740109
  32.7835059  37.8604174  29.4767666  33.9765882  37.6965594  28.8135600
  34.7414112  37.6546478  29.3922567  31.5696049  37.9993224  28.7174416
  31.6615796  38.2462215  27.6700735  30.3211665  37.9735160  29.2689848
  29.4815874  38.2226086  28.6369562  27.0319819  36.9747138  32.5382733
  27.0844197  36.8601513  33.7791848  25.9375739  37.2084951  31.8061686
  25.9838939  37.0889521  30.8043385  24.6183252  37.4816942  32.3499179
  24.7501755  38.2278585  33.1334710  23.6265469  37.9716682  31.2557220
  23.4840441  37.3103404  30.4010653  22.6941776  37.8788042  31.8126464
  23.9184594  39.3971395  30.8063555  24.9744582  39.5058680  30.5590892
  23.4216833  39.5907259  29.8556471  23.3999300  40.7030773  31.8958330
  21.6162753  40.7954597  31.5180993  21.2231183  39.8160386  31.2455797
  21.1100101  41.0142136  32.4582815  21.3204765  41.5614033  30.8012080
  23.9998746  36.2781119  33.0212784  23.4740043  36.3170981  34.1003442
  24.1875863  35.1157308  32.3741508  24.5672894  35.1457715  31.4387226
  23.8715863  33.8634038  33.0091715  22.9188681  33.8874125  33.5381818
  23.9919519  32.8171349  31.8918276  23.1465745  32.9711366  31.2212157
  24.9593949  32.9867053  31.4191699  23.8726449  31.4130425  32.4660182
  22.6756310  30.7721496  32.8959823  21.7633033  31.3488317  32.9347229
  22.7037978  29.4070530  33.2833314  21.7625070  28.9754200  33.5900259
  23.8333583  28.6507559  33.1855249  23.7558460  27.2870016  33.3924413
  22.9135895  26.9328284  33.6870027  25.0282693  29.2957377  32.7479243
  25.8553028  28.6174774  32.5983191  24.9958372  30.6287193  32.3344588
  25.9449077  31.0588169  32.0504069  24.8319626  33.5394788  34.1781235
  24.3063045  33.0952096  35.2551508  26.1470342  33.7959480  34.1732335
  26.5313697  34.1714048  33.3180022  27.0378542  33.7857795  35.3497577
  26.9570708  32.7723789  35.7429457  28.5494947  34.0326667  35.0573754
  28.7559891  34.9412155  34.4916916  29.0222430  34.1624522  36.0309076
  29.4562316  32.9589319  34.3891644  30.3505516  32.9961300  35.0111818
  28.8741374  31.5290165  34.6412611  28.1577015  31.1756492  33.8996768
  29.7029305  30.8468270  34.4519973  28.5186386  31.3907862  35.6623483
  29.7959375  33.3004642  32.8899980  30.3349161  32.4479985  32.4765873
  28.8506651  33.4625244  32.3720217  30.3342509  34.2481446  32.9047298
  26.4542556  34.5832896  36.5065598  26.2074876  34.1049337  37.6030064
  26.1176968  35.8081269  36.2977076  26.3060546  36.0865998  35.3453040
  25.4743552  36.7369103  37.2600698  26.2499714  36.9697738  37.9896569
  25.2436161  38.0541682  36.4646602  24.6598268  37.8787613  35.5610371
  24.6503639  38.6846089  37.1270013  26.4383936  38.9567757  36.1508417
  26.9118929  39.2702794  37.0812249  27.1149325  38.4179306  35.4874873
  26.0586810  40.2917957  35.4353976  25.3493762  40.1120949  34.6275043
  25.5271816  40.8876562  36.1773920  27.2794986  41.0175943  34.9147582
  27.3600554  41.0824347  33.9100671  28.3012128  41.5655947  35.5292344
  28.3789730  41.5325069  36.8448830  27.6870561  41.3652849  37.5614023
  29.2867446  41.8031740  37.1952987  29.2994285  42.0916080  34.9285197
  29.2674708  42.1050549  33.9191151  29.9567866  42.6718903  35.4297733
  24.1640997  36.3608718  37.8370070  23.9366817  36.5331340  39.0538859
  23.2705092  35.7055283  37.0220542  23.5106254  35.5114841  36.0603905
  22.0895791  35.0461984  37.4534225  21.5568495  35.7237506  38.1206727
  21.2735224  34.6339321  36.2245178  21.2195992  35.4752922  35.5336404
  21.8125844  33.7780070  35.8184385  19.8297489  34.1396236  36.5287828
  19.5130491  33.6087203  35.6310415  19.9129164  33.3355165  37.2599435
  18.8278639  35.2070212  36.9987416  19.1303170  36.3721299  37.2616744
  17.5530136  34.9422026  36.9787383  16.8644273  35.6186032  37.2761059
  17.3505962  33.9749670  36.7699671  22.2333097  33.8867974  38.4459352
  21.4070845  33.7452579  39.3803406  23.3022475  33.1098151  38.3557892
  23.9605880  33.3032918  37.6146674  23.6856198  32.0577264  39.2953706
  22.7764606  31.4776850  39.4537425  24.7855425  31.1210370  38.7886834
  25.6833339  31.6742802  38.5130119  25.1084542  30.4398203  39.5759368
  24.4163013  30.2558947  37.5279021  24.0769315  30.9210348  36.7338467
  25.6848383  29.4912219  36.9324946  26.4080667  30.2744436  36.7053246
  26.1512566  28.7786770  37.6128125  25.4460740  29.0725565  35.9548378
  23.3342505  29.2785764  37.6993489  23.5522866  28.4902096  38.4197950
  22.4327350  29.8530889  37.9122090  23.1380129  28.8154578  36.7323375
  24.0894413  32.4654365  40.7310581  23.5837865  31.9354963  41.7369652
  24.9340916  33.5025954  40.8859062  25.2341032  34.0110517  40.0664139
  25.1029491  34.1686630  42.2034645  25.4827809  33.4498906  42.9295492
  26.1754370  35.2244282  42.0358896  25.8041096  36.0493612  41.4278555
  26.3402247  35.6995344  43.0029631  27.4779510  34.8492956  41.3056326
  27.9740238  33.5206962  41.2220001  27.4474764  32.6789165  41.6469193
  29.3054438  33.4087253  40.8034801  29.8169899  32.4722528  40.9700441
  30.0225258  34.4587350  40.2139568  31.0413718  34.3658996  39.8679399
  29.4405746  35.7280993  40.2632523  30.0284100  36.5991926  40.0141525
  28.2253695  35.9447169  40.8758354  27.8469491  36.9551206  40.9236765
  23.7950516  34.7685957  42.7680540  23.5679984  34.7757459  43.9707184
  23.0081058  35.4586124  41.8978834  23.2010984  35.5900621  40.9152460
  21.6608095  36.0181737  42.2237110  21.9264340  36.6658425  43.0592203
  21.1445427  36.9602561  41.1497593  21.8526626  37.7779078  41.0151863
  21.0872507  36.3834143  40.2266788  19.8098993  37.6194835  41.5409136
  19.0116489  36.8859482  41.4276743  19.8625076  38.0001354  42.5609303
  19.4877946  38.8758159  40.5975533  18.7577784  39.4108939  41.2048960
  20.3522205  39.5250058  40.4581881  18.8794410  38.5539508  39.2989206
  19.0494764  37.6181245  38.9591813  18.4130919  39.3286967  38.3579874
  18.3068466  40.6341314  38.5374117  18.9987409  41.0003567  39.1755819
  18.0773902  41.2412405  37.7635431  18.1153166  38.9453793  37.1428299
  18.4144926  38.0074930  36.9170833  18.0499172  39.6384621  36.4110804
  20.6301570  35.0653291  42.6864386  19.9514902  35.3266120  43.6654711
  20.3311515  34.0223289  41.8891907  20.7302666  33.9502001  40.9641981
  19.4130278  32.9928970  42.3242855  18.4072030  33.4127617  42.3125696
  19.4451535  31.8866968  41.2579346  20.4502916  31.7603922  40.8556318
  18.9216828  30.5073571  41.7613173  19.5234728  30.0904322  42.5688601
  17.8691280  30.5813622  42.0347261  19.0063822  29.8670983  40.8832502
  18.5156882  32.3329496  40.1234436  17.4981821  32.2298527  40.5004787
  18.7785113  33.3443189  39.8133588  18.5892451  31.5416670  38.8054633
  18.1890774  32.2232151  38.0548263  19.6606898  31.4554930  38.6246872
  18.0816329  30.5782771  38.8535762  19.7453177  32.5138998  43.7251234
  18.8468003  32.3959994  44.5603848  21.0372758  32.1455455  43.9523029
  21.7128301  32.2239876  43.2055902  21.5371370  31.6564393  45.1690578
  21.0673475  30.7326603  45.5067492  23.0364203  31.2671661  44.9974203
  23.1331372  30.5146170  44.2148495  23.6367846  32.0929933  44.6157503
  23.8249826  30.7718563  46.2353611  23.8598895  31.5786958  46.9674063
  23.0892038  29.6611118  47.0228386  22.1547103  30.0699496  47.4071264
  22.6492977  28.9005709  46.3777351  23.7262130  29.3441248  47.8485727
  25.2147079  30.3481197  45.9108543  25.5808306  31.0934615  45.2047968
  25.8013439  30.5022597  46.8165016  25.2394724  29.3053412  45.5944586
  21.2953043  32.6303267  46.3014746  20.7230973  32.2572756  47.3171043
  21.7286348  33.9089966  46.1941671  22.2055912  34.1744328  45.3443670
  21.7155123  34.8977637  47.2370195  22.1805930  34.5735478  48.1679821
  22.4595785  36.0882092  46.5899944  23.4598112  35.7464051  46.3239002
  21.9953585  36.3584542  45.6415367  22.5246525  37.3406720  47.4094725
  23.6648607  37.4953198  48.2110691  24.4039488  36.7288113  48.3916855
  24.0245414  38.8002682  48.6173248  24.9369788  38.9530921  49.1745567
  23.2631230  39.9227285  48.2709408  23.5460877  40.9202290  48.5731554
  22.0812511  39.7156644  47.5731850  21.4615059  40.5574799  47.3017836
  21.6869807  38.4659982  47.1438885  20.8523512  38.2812262  46.4838409
  20.2324033  35.2592087  47.4824715  19.9940991  35.3700852  48.6612320
  19.3836915  35.4125190  46.4688921  19.7108865  35.2482963  45.5275774
  17.8399324  35.4045534  46.5375900  17.3986483  36.3151288  46.9428349
  17.2249615  35.4185963  45.1044321  17.6413691  36.3144684  44.6438694
  17.5671744  34.5793152  44.4989538  15.6938291  35.5615616  45.0131702
  15.2777052  34.6484041  45.4387045  15.3084493  36.3889623  45.6089830
  15.2688837  35.7198596  43.6052036  15.6158268  34.8433781  43.0579233
  14.1992915  35.6208086  43.4201002  15.6829405  37.0207238  43.0242062
  15.9738302  37.7666974  43.6398411  15.5168271  37.4284124  41.7654991
  14.9596810  36.6874838  40.8643436  14.5918584  35.7709360  41.0758781
  14.7314370  37.1304250  39.9858141  15.9947515  38.5682487  41.4447260
  16.2374890  39.1389942  42.2418642  15.7637095  38.9068913  40.5216646
  17.3001111  34.1874814  47.4050522  16.5408790  34.3794131  48.3566189
  17.8094721  32.9694462  47.1549177  18.5165739  32.8174806  46.4499283
  17.3495018  31.7789674  47.7888012  16.2597132  31.7921829  47.7717304
  17.6904619  30.5241013  46.8858576  18.7705755  30.5552411  46.7427301
  17.3459315  29.1973019  47.4747753  17.7889490  28.3005667  47.0415306
  17.6502347  29.2376757  48.5206604  16.2561619  29.1848421  47.4935436
  17.0984256  30.5536413  45.6748581  17.5461209  31.2707472  45.2199602
  17.7905440  31.5724134  49.2730522  17.1028912  30.9697199  50.0944233
  18.9274871  32.2464538  49.5872784  19.2639542  32.8609085  48.8597202
  19.3271863  32.4662781  50.9807730  19.1289461  31.5912127  51.5996885
  20.8241677  32.8806806  50.9300661  20.9865975  33.7889671  50.3497791
  21.1452770  33.0566692  51.9567204  21.7739892  31.8284583  50.4204130
  21.5351629  31.4544153  49.4248486  23.1946516  32.4037218  50.1382685
  23.6842585  32.6440668  51.0819912  23.7071133  31.6451573  49.5466042
  23.1106830  33.3536553  49.6103668  21.9130182  30.6285596  51.3962460
  22.2351933  30.8997464  52.4016142  20.9304643  30.1724172  51.5171623
  22.6558614  29.9177957  51.0341644  18.5660517  33.6329055  51.7071629
  18.8736784  33.9179444  52.8487492  17.6668346  34.2850351  50.9227896
  17.4637485  33.9431429  49.9943686  16.8208325  35.4042339  51.4209366
  16.2590408  35.6382656  50.5166578  15.7822537  35.0893831  52.4317789
  16.2618041  34.9665523  53.4028864  15.2293265  36.0172129  52.5784349
  14.9171376  33.8466191  52.1998262  15.1375544  32.7409673  52.7025843
  13.9895916  33.8784361  51.2680244  13.5604572  32.9769540  51.1154652
  13.9683223  34.7217178  50.7125759  17.6346445  36.6815186  51.7443800
  17.3519588  37.4465895  52.6463604  18.6595178  36.8818188  50.9404898
  18.8755572  36.2759209  50.1618242  19.5679009  37.9684567  51.1192989
  19.6700406  38.2881284  52.1563530  21.0684037  37.5927210  50.8252192
  21.1272907  37.0949197  49.8573208  21.6080070  38.5384846  50.7756329
  21.5888286  36.6508746  51.8913794  21.6573930  36.8982506  53.2533789
  22.4875546  35.9987307  53.7660122  22.7759504  35.9841299  54.8066902
  22.9543066  35.1851988  52.7889395  23.6498666  34.4991040  53.0450106
  22.4481726  35.6117272  51.6162586  22.7080536  35.0379372  50.7389736
  19.2213631  39.1923809  50.2685452  18.4322262  39.1634583  49.3435192
  19.8721361  40.3418779  50.6165409  20.5637431  40.2708578  51.3491631
  19.6231496  41.6957331  50.0971317  18.9303696  41.5842915  49.2630243
  19.0124571  42.6209688  51.1747694  19.6008456  42.5713015  52.0909739
  19.1713107  43.6280060  50.7890987  17.5813222  42.3088884  51.5298557
  17.1881747  43.2184744  51.9839334  16.8897617  42.1336746  50.7057571
  17.3307955  41.1188412  52.5424623  18.1062269  40.9118271  53.5055256
  16.3367498  40.2427197  52.3201466  16.4920497  39.3151569  52.6883984
  15.5526555  40.4313421  51.7120981  20.8919263  42.3799896  49.5576334
  21.9102693  42.2892141  50.2246618  20.8700585  42.9459047  48.3420992
  20.0262833  43.0620050  47.7992630  22.1367836  43.6374187  47.9451561
  23.0679178  43.1088734  48.1494427  22.1085882  43.9026594  46.4221239
  21.1768198  44.3975258  46.1482286  22.9101110  44.6347046  46.3232756
  22.3413324  42.6239157  45.6825113  21.1522889  41.9012022  45.2964211
  20.1968360  42.2697926  45.6394291  21.3290119  40.6716824  44.5923567
  20.4314590  40.0875998  44.4521904  22.6335096  40.1132488  44.2623425
  22.8098416  38.9351654  43.6412573  23.6742711  38.5216093  43.6989784
  23.7660265  40.8068848  44.7794437  24.7468305  40.3660631  44.6789217
  23.6112571  41.9787121  45.4906654  24.5340800  42.3903322  45.8719492
  22.1973968  44.9967480  48.7218380  21.3133669  45.8135271  48.5778475
  23.1739783  45.2435970  49.6122217  23.7451959  44.4263458  49.7732019
  23.1088448  46.4092779  50.5170155  22.5498486  47.2090244  50.0311804
  22.3720789  46.0700083  51.8176985  22.3140955  46.9021082  52.5193787
  21.3779521  45.7873058  51.4714432  23.0234408  44.9797773  52.6679134
  24.2223239  44.6572351  52.4350643  22.3988962  44.4862270  53.6031103
  24.5068336  47.0002842  50.8062172  24.5576191  48.1262064  51.3512087
  25.5619001  46.3233900  50.3878164  25.4092479  45.4559755  49.8934603
  27.0370793  46.7110729  50.5244446  27.7107620  45.9805250  50.0766039
  27.2801065  48.0821276  49.8627567  26.7512321  48.8969851  50.3571224
  28.3393526  48.3336020  49.9162197  26.8434954  48.2001543  48.4427691
  27.6997304  47.6407146  47.4709940  28.6802959  47.2727966  47.7346897
  27.3805523  47.6888275  46.0719061  28.2039165  47.4145317  45.4290724
  26.0128713  47.9926825  45.7382965  25.6428218  47.9084778  44.4491720
  26.4625311  47.7746010  43.9677668  25.1242876  48.3625746  46.7628527
  24.1244221  48.5983419  46.4295578  25.5188036  48.5141993  48.0506134
  24.8739076  48.9636087  48.7912464  27.3654699  46.7362452  52.0305729
  28.1860518  47.5596333  52.3909855  26.7714071  45.9537840  52.9286385
  26.0749435  45.3519917  52.5128412  27.0844531  45.7678223  54.3579149
  27.3790550  46.7393780  54.7546387  25.8350277  45.5856371  55.2206469
  26.2384129  45.4240561  56.2202835  24.8970819  46.7894125  55.3056717
  25.5293727  47.6501894  55.5233383  24.4068956  46.9200659  54.3409157
  24.1400146  46.7073488  56.0855484  25.0282240  44.4815636  54.9813986
  24.5458078  44.6580362  54.1703892  28.1410527  44.6608257  54.5771599
  27.8536248  43.5401583  54.9858856  29.3787122  45.0418663  54.3957949
  29.6529055  46.0119200  54.3332338  30.4753923  44.0889502  54.2489147
  30.1708245  43.1333590  53.8220882  31.5522385  44.6045637  53.2513380
  31.9120550  45.5825329  53.5710382  32.3827362  43.9085436  53.3693600
  31.0910320  44.6733856  51.7932892  30.6274056  43.5074854  51.1334324
  30.5537295  42.5774145  51.6774416  30.1764989  43.6558437  49.8388004
  29.7942090  42.8001022  49.3021822  30.2944946  44.8369837  49.1094828
  29.9655771  44.9681330  48.0891848  30.7527494  45.9908724  49.7536659
  30.9803534  46.8884754  49.1978741  31.1942959  45.8976650  51.0844374
  31.6452241  46.7337513  51.5982723  31.1050534  43.6258554  55.6177092
  31.2774181  44.4761229  56.4887667  31.5742350  42.3655272  55.6464052
  31.3146114  41.8084574  54.8449183  32.0885372  41.6451979  56.8938351
  31.3050675  41.3598204  57.5958633  32.7192831  40.2571392  56.4679050
  33.4718418  40.4232597  55.6970882  33.3025908  39.8407388  57.2891617
  31.7394996  39.1583872  56.0806179  32.2389054  38.0368233  55.8986425
  30.5279469  39.4190788  55.8243799  33.1177068  42.4450541  57.7520418
  32.9129267  42.5957203  58.9561892  34.1057897  43.0847502  57.0898771
  34.1656208  43.0507469  56.0822248  34.9584913  44.0460062  57.8113508
  35.5049992  43.4786129  58.5646725  35.9893465  44.6037292  56.7590904
  36.7204213  45.2274752  57.2734594  36.5625477  43.7270069  56.4575911
  35.5142260  45.2363873  55.4958344  35.3281879  46.5722704  55.3723288
  35.3629756  47.2962046  56.1730242  35.2032757  46.7663431  54.0006113
  35.1239395  47.6791239  53.5755920  35.0692177  45.5922318  53.2846498
  34.6744990  45.2965260  51.9828415  34.5084596  46.1050415  51.2863255
  34.6676612  43.9514208  51.5543461  34.4134688  43.6675549  50.5437946
  34.9571466  42.8676462  52.4544621  34.8932528  41.8504667  52.0971489
  35.1434278  43.1938934  53.8383484  35.4478884  42.4893427  54.5981598
  35.2744031  44.6016693  54.2185116  34.3518972  45.2810478  58.5179710
  34.9127316  45.7167053  59.5391178  33.2168007  45.7515621  58.0189657
  32.7898979  45.2094221  57.2814417  32.4448657  46.8600941  58.6626625
  33.0895162  47.5587273  59.1959906  31.6966414  47.7011156  57.6182556
  31.2258506  48.4688950  58.2322359  32.6017213  48.3443880  56.5924740
  32.0841241  49.2185640  56.1974955  33.5420418  48.6148834  57.0728111
  32.9009438  47.6727343  55.7878304  30.6063080  47.0026541  56.9968414
  30.8618379  46.1313486  56.6851759  31.5473795  46.2181854  59.6825218
  31.5118694  46.6554546  60.8312750  30.9349585  45.0581264  59.4420242
  31.0445023  44.7037697  58.5025930  30.1221728  44.3474197  60.3237963
  29.3502212  45.0269270  60.6849861  29.5288157  43.2073212  59.4692802
  30.2858186  42.5953007  58.9788961  28.9696908  42.4785566  60.0561285
  28.4663892  43.7115288  58.3979130  28.8479209  44.4240141  57.6665497
  28.2488894  42.8517771  57.7641773  27.0706725  44.4348526  59.1880751
  25.9644580  42.9705811  59.1830587  24.9856663  43.1366014  59.6330643
  25.7596135  42.7042961  58.1461239  26.4668417  42.1468306  59.6901560
  30.9931922  43.8447666  61.5462828  30.4470325  43.5423660  62.6304102
  32.3554039  43.7197542  61.4377785  32.7398229  43.9856052  60.5424309
  33.2408834  43.3444071  62.4866152  32.6308775  42.7773619  63.1897831
  34.2784309  42.3826265  61.8911791  33.7362289  41.6523409  61.2905073
  34.8837972  42.8239632  61.0994387  35.2241588  41.5757608  62.8157997
  35.8643031  42.3388338  63.2585621  34.4555783  40.8646393  63.9160252
  33.6269736  40.2901173  63.5019732  35.1347637  40.3846455  64.6205902
  34.0508986  41.6576195  64.5449257  36.1815166  40.5560827  62.1323061
  36.7749929  40.0848103  62.9157543  35.6249356  39.7949076  61.5855598
  36.8917179  41.1173058  61.5250635  33.8315487  44.6025133  63.1835556
  34.7022271  44.3694210  63.9827442  33.4167266  45.8359146  62.8709364
  32.6882076  45.8883667  62.1733618  33.7467527  47.0412397  63.5635757
  34.2357850  46.7837954  64.5030832  34.8185396  47.7820730  62.7474785
  35.5077362  46.9922543  62.4486589  34.3036842  47.9862833  61.8086863
  35.5181861  48.9474249  63.3801031  34.8218942  49.5255375  63.9876080
  36.2716341  48.6225033  64.0976286  36.1319613  49.9769020  62.3877335
  36.6806674  50.7581329  62.9137564  36.9560957  49.5092344  61.8490362
  35.1721787  50.5361176  61.3241339  35.7614994  50.9544134  60.5081463
  34.6154070  49.7715425  60.7823420  34.2954969  51.5697527  61.8740177
  34.1199207  51.3961744  62.8533792  34.8606825  52.4035549  61.8002748
  33.4364080  51.6597366  61.3505888  32.5720644  47.9497242  63.9015436
  31.8337178  48.3488703  62.9910326  32.4376750  48.4386730  65.1406813
  32.8741193  47.9858112  65.9309578  31.6492581  49.6154118  65.5251265
  30.5732584  49.4418192  65.5390358  31.9346070  49.9923754  66.9091034
  31.9332767  49.1321421  67.5785065  33.0027771  50.2055311  66.8681383
  31.2338114  51.1958694  67.4709272  31.3500166  52.1353817  66.9306374
  30.1897812  50.9347963  67.6439571  31.7082477  51.5887356  68.8365221
  32.7874613  51.2221766  69.3145752  30.8908343  52.2572470  69.6785021
  31.1867094  52.4052572  70.6327820  29.9718165  52.6039982  69.4434166
  31.7977691  50.8403969  64.5454073  32.9396486  51.1934376  64.2149687
  30.7013655  51.3906860  64.2546511  52.5304794  57.6995039  18.0339944
  51.0253525  29.4600606  55.3629398  54.6094084  39.7181201  13.6508453
  26.4289379  14.1967690  57.0565271  70.7343149  45.7840538  51.9052267
  24.8557997  32.8601980  10.9333277  46.5029907  19.8024833  66.6571760
  75.7669926  54.7725344  55.2492332  24.8990393  51.8884611  39.2602324
  34.2861772  78.7664032  33.9825845  68.3756018  65.5041599  28.7740493
   9.1896057  37.8225899  30.2106071  17.8250277  27.0332003  64.3940926
  59.5833969  35.1269484  22.1293569  30.4633260  78.5868740  59.8750639
  30.2717376  79.4600725  60.2171898  30.0371122  77.9898643  60.4900122
   1.2633021  69.8933887  26.5018559   1.8234627  70.6631565  26.4023018
   1.7203216  69.2011976  26.0241175  85.5411530  69.3947983   3.9694935
  85.3617001  68.4926367   3.7046647  85.6899071  69.8608494   3.1467527
  31.4222956  24.2135167  53.9297867  31.6574287  24.9088120  54.5442009
  30.5126190  24.0041804  54.1416740  12.6828992  64.7402048  16.7572451
  12.7249575  64.4456577  15.8474612  11.9220865  65.3203392  16.7862475
  71.9049501  73.9537764  13.7417805  71.7137814  73.5750723  12.8837204
  71.0494232  74.2091513  14.0868640   3.9760730  68.4267426   5.6157869
   3.8255620  67.5632715   6.0004824   4.2838502  68.9638662   6.3458574
  76.4271402  80.6499004  32.6018333  76.7775631  80.9733963  33.4317684
  77.0829010  80.9003639  31.9510865  38.6099315   8.3553535   8.6017215
  39.5011353   8.6782908   8.7347496  38.4039879   8.5868448   7.6960558
  50.5486631  29.9360943  58.4457397  50.3635645  29.1283059  58.9247465
  50.5011559  29.6839571  57.5235653   5.1590949  54.3137312  35.6613851
   5.8625716  54.2980909  35.0124574   4.4085944  53.9269447  35.2104139
  27.2804880  21.2280893  20.5119872  27.1604753  22.1140528  20.1700878
  27.0840716  20.6563234  19.7698700  78.1431293  78.6445045   3.3696377
  77.4700689  78.8197994   4.0272841  78.8484859  79.2565012   3.5797930
  68.1712914  65.1247358  23.1163335  68.9235640  65.3610754  23.6589742
  67.4312735  65.1163244  23.7234044  78.5356855  60.1862860   3.0112559
  79.0379143  60.9944963   2.9073632  78.5973120  59.7547817   2.1590596
  10.2792263  21.0897756  12.2714067  11.0823548  20.5905032  12.1232736
   9.5831227  20.5324411  11.9234836   6.8769294  68.3211470   2.8801966
   7.7596503  68.3194017   2.5100175   6.8064165  67.4820375   3.3353373
  24.8290658  71.9090986  29.8962021  25.3072119  71.8517447  29.0689683
  24.3278003  71.0948229  29.9400616  64.6036339  70.9136343  18.7711203
  64.1346931  70.5261850  18.0320573  64.1138792  71.7105579  18.9742959
  46.4569712  79.0136385  14.7214079  46.8807316  78.1806946  14.5143616
  47.1271849  79.5141983  15.1866901  75.5151081  47.7848816   1.2959437
  74.8403883  47.1912241   0.9664680  75.0458479  48.5959578   1.4913437
  67.4147129  76.1682606   7.1101862  66.6454649  76.2899971   6.5537059
  67.0870590  76.2887478   8.0014551  14.1499496  70.7402802  28.8098168
  14.1599095  69.9230814  29.3081307  13.2366157  71.0255480  28.8358140
  47.7523613   6.1644316   1.7982979  47.4964142   5.4264307   1.2450559
  47.0772123   6.8251193   1.6437139  78.4935617  68.7360430  24.6941447
  79.3568850  68.6248541  24.2959714  78.2785511  69.6570349  24.5465541
  18.3030951  74.2339420   5.5464816  17.5387573  74.8069096   5.6075609
  18.1831598  73.5985804   6.2522858   5.7539815  55.7973623   9.6109384
   6.2361258  56.4820242  10.0746322   4.8357639  55.9659719   9.8223120
  48.9504147  42.5264645  61.8592548  49.4048452  41.7055082  61.6701651
  48.0589056  42.2603989  62.0843172  68.7733187   0.2171103  19.4475591
  68.7920393  -0.6874975  19.7599149  69.2123808   0.7171980  20.1355743
   9.9904746  65.1369476  28.2647038   9.2154568  64.6317863  28.0189538
   9.8692530  65.3238964  29.1956091   5.9925526  20.5817223  20.5842066
   5.9235364  20.6611729  21.5356040   5.1905835  20.9846187  20.2514124
  19.2488039  65.9394741  69.3639278  19.0700662  65.0201559  69.1660786
  18.7662053  66.1085415  70.1730919   8.9227593  11.7527199  22.4657941
   8.7975544  11.0594082  23.1137729   8.0529547  11.8896079  22.0903850
  67.5088739  71.6727161  18.9163077  66.5999937  71.4234686  18.7488377
  67.9927397  70.8473158  18.8877285   7.9651135  76.8490171  21.5265894
   8.7490416  77.3479271  21.2968564   7.8338838  77.0247269  22.4583292
  13.3235669  24.2446208   9.2382807  12.5580788  24.6235108   8.8061887
  14.0215302  24.8831892   9.0923059  58.2454157  51.2584591  24.2189384
  59.0680599  51.7455864  24.1720390  58.5133219  50.3424072  24.2918038
  39.3369794  30.6786108  60.4437494  39.5109224  31.5291619  60.0405884
  40.1895189  30.2438259  60.4629660  74.3267393  76.2542725  21.8281531
  73.4125996  75.9707022  21.8152833  74.4562149  76.6837358  20.9825563
  69.7576332  68.0666018  30.1200342  69.6111155  67.2408581  29.6586037
  68.8915443  68.4714127  30.1674581  38.0116844   5.1559150   8.5541242
  38.6507940   4.6932074   8.0122089  38.2895851   6.0713673   8.5232759
   7.3308188  76.2671518  29.4180870   6.7334718  76.0018063  28.7188005
   8.2027727  76.1874485  29.0313363  30.7381892   4.7536641  18.8997638
  31.5740848   5.1413846  19.1589677  30.8007789   4.6630961  17.9489160
   9.5356655  71.7483187  17.2129571   9.8256058  72.5660372  16.8086028
   8.6141467  71.8988609  17.4236047  49.4617891  19.1139734  15.6512249
  49.3562269  20.0622511  15.5746877  49.8846960  18.8532507  14.8330522
   9.0980262  22.5753951  68.7579823   9.4758803  23.4546041  68.7367678
   9.3544334  22.2250247  69.6110535  20.3585839  13.7857890   7.8701025
  20.5205774  13.4186673   8.7391317  19.6461046  14.4109952   8.0032188
  10.8973789  75.9927177  23.4678578  10.8961773  75.7080984  24.3817616
  10.4682899  76.8482256  23.4828687  67.0348644  38.1708860  66.2146664
  66.4879417  38.9345622  66.3988066  66.5478611  37.6818252  65.5514336
  78.3284855  71.7446852   4.9070901  78.3374119  71.3713408   5.7884324
  77.7082253  71.1999941   4.4225091  82.2393799  12.3655379  29.6412373
  81.8591404  11.6307425  29.1598606  83.0594730  12.5524700  29.1843629
  36.6125631  18.4053028  20.8982396  36.0563183  18.3289874  21.6734791
  36.5599608  17.5458407  20.4801607  35.7775474  19.8374319  32.3551273
  34.9017930  20.2235246  32.3697805  36.2057352  20.2434707  31.6014552
  62.7975607  64.0821075  67.4435663  63.0936384  63.1736469  67.3863983
  61.8757200  64.0183115  67.6933098  68.1599379  78.6652851  26.2749076
  67.6590919  79.2374325  25.6935024  67.4969959  78.2232571  26.8053317
  66.1646843  29.8744273  67.5129128  66.4505243  30.7410908  67.8017378
  66.2297249  29.3275404  68.2958031  18.4419703   0.9785560  16.0184038
  18.7976253   1.0396821  15.1318347  18.2158434   1.8797724  16.2484205
   8.6365598  28.0225778  15.9651661   9.0257025  27.9369187  15.0948429
   8.9817810  28.8495612  16.3015485  56.1021805  10.7807088   0.5807057
  55.9334946   9.8901391   0.8883774  55.2412653  11.1136842   0.3273578
   3.8775420  19.1547608  35.3399587   4.1258985  19.0634751  34.4200587
   3.6075470  20.0690961  35.4255557  64.6851015  48.7162399  68.4637976
  63.8250017  48.2963943  68.4775543  65.0272369  48.5903978  69.3488646
  63.1999254  76.7342663  25.0271273  62.6547050  76.1604691  25.5653858
  63.2567930  76.2874794  24.1825080  10.3863823  69.0893841  36.1608768
   9.8357934  68.3089638  36.2243938  10.4480529  69.2631960  35.2216125
   2.1316916  72.2853374   3.4718457   2.1669745  71.5099049   4.0319297
   1.2275394  72.5913668   3.5431659  18.2370830  52.8433037   5.2632815
  18.0147409  52.0728397   4.7406167  17.4402726  53.3736897   5.2590382
  18.4369314  20.7477331  14.8114407  17.7440977  20.6005120  15.4552889
  19.2052817  20.3144431  15.1830971  23.8315916  78.4317684  28.2936573
  23.1889033  77.7272177  28.2112217  23.3646417  79.1292906  28.7537098
  84.3159771  61.8334579  10.4771316  84.2463398  61.2372112  11.2227011
  85.2261257  61.7544317  10.1914454  28.6834478  18.4235835  30.0967622
  29.6064091  18.6214173  29.9379063  28.6971545  17.6278412  30.6285906
  70.9105587  80.2535152   2.1515045  70.4517269  79.8345709   1.4233623
  70.5589437  79.8273230   2.9331428  43.2685852  10.6118000   8.3432245
  42.3394585  10.8407891   8.3660400  43.4294415  10.3537261   7.4356151
  73.6673355  31.3148189  62.4814558  73.3560658  31.7982984  61.7162132
  73.6937380  30.4022622  62.1937561  40.1276112   3.7405255   7.7529043
  40.4335022   3.0028340   8.2806093  40.7424545   4.4471952   7.9499215
   3.6398548  74.1116571  27.5520349   3.2279149  74.1874361  28.4127307
   4.0671256  74.9572849  27.4157143  82.9740715   0.0362047   7.8958350
  82.5866890   0.2271245   7.0416009  82.3263168   0.3482639   8.5277086
  56.8637514  13.2323980  10.6330407  56.2715626  13.0170763  11.3535821
  57.7354479  13.2226121  11.0283577  17.9458964  39.6570754   0.5206137
  17.4933803  38.8140702   0.5489458  17.6009488  40.1394510   1.2719847
   5.7198304   6.4874005   5.4304987   5.5347496   7.3896044   5.1697212
   5.9937698   6.0556024   4.6213388   5.5485100  70.3626204   3.9216569
   6.1363268  69.7367430   3.4985963   4.8831892  69.8189116   4.3435103
  28.8193464  20.0826597  10.7124817  29.4013572  19.8001146  10.0070298
  29.3778849  20.6032324  11.2897754  51.7611265  39.8256826  62.0770502
  52.4043465  39.1172838  62.1030521  51.9385529  40.3393364  62.8650284
  19.5143902   3.8622779  10.2519929  19.4226885   4.3073207   9.4095212
  19.2703760   2.9545397  10.0711632  53.9321375  56.4900732  61.2332630
  54.0703201  56.0205317  60.4106665  54.7391033  56.3486242  61.7282629
  14.0999663  24.9812388  27.5639081  14.1131675  24.9312449  26.6081071
  15.0230658  24.9725318  27.8169751   2.4616300  60.0499487   8.9286453
   1.9274090  60.0761175   9.7224689   3.3172357  60.3784370   9.2048103
  66.2264872  30.0083184  43.1203699  67.1072531  29.7375441  42.8612185
  66.3116932  30.2493405  44.0428019  51.2672281  15.4662764  50.3479528
  50.4683065  15.7266116  50.8064032  51.7455244  14.9339700  50.9836531
  80.8877373  32.4171829  15.1555800  80.0576019  32.8454185  15.3646958
  81.3966370  33.0895257  14.7025847  16.7608535  69.2483091   7.3013842
  17.1490192  68.5783529   6.7386067  17.5035310  69.7794294   7.5887382
  78.5892248   7.7841324   7.3058844  78.4610033   8.0646950   8.2120162
  78.2019663   8.4847754   6.7811370   1.6257219  49.8211002  20.7497716
   1.8705623  50.7447863  20.8053303   1.6783647  49.5046997  21.6516328
  49.1274834  16.8445349  58.1175375  49.7071791  17.0884967  57.3959637
  48.5025072  16.2338877  57.7267075   9.7094077  39.2307997  13.4897161
  10.4964006  38.9150476  13.0456710  10.0273871  39.9050570  14.0901291
  58.6416245  13.1862509  52.9060316  59.5096254  13.2330227  53.3068085
  58.7807178  13.4632838  52.0004177  63.7954140  15.4210377  66.6786098
  64.2371988  16.2657630  66.5920115  63.3188200  15.3144884  65.8553648
  13.3346200  65.2120543  36.4635062  12.7464485  64.8236799  35.8158541
  14.1364062  64.6930027  36.4005995  74.2166471  50.5617046  34.5114303
  74.0598536  51.2690592  35.1369715  73.6677790  50.7816172  33.7586880
  62.0023489  19.6874380  69.2748213  62.8797865  19.3346620  69.4227695
  61.5421438  19.5391417  70.1009274  81.8468380  49.9131107  27.1975756
  81.4163494  50.4767084  27.8404331  82.3775387  49.3134928  27.7220225
   8.6373031  71.6831064  61.4494896   7.7050209  71.7997980  61.6324234
   8.6779290  71.5203381  60.5071068  -0.0060592  60.4991770  17.7097023
   0.7442425  60.0480747  17.3226810   0.2610034  60.6780577  18.6113179
  65.3041744  53.9973450  16.6137767  65.8837748  53.2591724  16.8019164
  65.6546402  54.3778372  15.8084011   7.9829699  50.3335238  13.9213431
   8.4505832  49.7738171  13.3014262   7.2217715  49.8160934  14.1841602
  39.7009921  56.4944553   3.8176307  39.5744658  55.9496784   3.0408162
  38.8289213  56.5639210   4.2060873  34.7447920   4.6316043  64.8280573
  34.3580151   4.2103145  64.0604973  33.9948153   4.8781639  65.3693295
  47.7105474  10.0246799  59.5570755  46.9119453   9.4988441  59.6013832
  48.0110550  10.0807118  60.4641533  61.7223120  48.5723257  16.4055586
  61.3691950  49.3572044  15.9866273  60.9523106  48.1118870  16.7392075
  81.4423847  45.9210634  24.9629378  82.1638584  46.5181971  25.1607943
  80.8618069  45.9874010  25.7210636  76.4978790  59.0131187  21.8049812
  76.3209486  58.4714222  21.0358953  77.1051884  59.6832371  21.4913750
  19.7585404  70.7965040  11.2531281  19.4593978  71.5373182  10.7259250
  20.6976438  70.7405710  11.0765290  60.9299374  65.6043243   4.4863755
  60.8449507  64.7616911   4.9324396  60.5985403  65.4422569   3.6031187
  65.1852608  12.2436619  54.1503954  64.8391390  12.9815876  53.6485004
  64.5816517  11.5241349  53.9655447  18.8836396  60.3490782   8.3401543
  19.2610729  60.3084707   7.4614471  19.6375811  60.2948952   8.9274085
  36.4675355  67.6163578  58.5075617  36.5390563  68.5203409  58.8140392
  35.8682084  67.2001314  59.1270733  56.8498087   5.9613681  69.1858625
  57.0226383   6.8934160  69.0530109  56.5002537   5.9069866  70.0752926
  20.5913568  72.7127886  15.2953279  20.1804018  71.9877148  14.8245668
  19.9829960  73.4438705  15.1873791  85.2782917  39.3715096   0.8316565
  84.3478489  39.5637345   0.9480735  85.6832695  40.2266741   0.6870236
  19.1273940  43.7840366   0.7678223  19.6248424  43.6652803  -0.0412967
  19.3935883  44.6458006   1.0883442  60.7957697  30.7660365   5.4346830
  60.4388857  31.5246391   5.8966172  61.7070246  30.7166600   5.7234937
  38.6125970  22.1709991  59.2337608  39.2799425  22.2392368  59.9165726
  39.1063547  21.9936395  58.4331512  23.8986921  74.4513321  58.8846684
  23.6074328  73.5411501  58.8301373  24.0834212  74.5884323  59.8138142
  70.5764198  61.8373299  20.0598264  70.1810074  62.2289038  20.8386397
  70.6841135  60.9131908  20.2847719  77.5936508  28.2073712  33.4961033
  76.8947744  27.7948356  34.0036678  77.2415304  28.2669806  32.6080227
  75.2968693  57.2933960  39.1991401  74.3803215  57.5689650  39.2145872
  75.5323458  57.1929359  40.1214695  42.0234871  67.0921707  47.0317411
  42.5015402  67.4068737  47.7989864  42.6189613  66.4671230  46.6182804
  78.0191994  74.3277073   5.3759331  77.7075338  74.6829557   4.5435309
  78.0226898  73.3794594   5.2453595  58.8037395   5.0903511  58.0035067
  59.5070887   5.4319698  58.5556221  59.0412045   5.3628194  57.1171618
   7.6659548  68.8749504   6.4093804   7.7709323  69.4165230   5.6271333
   6.8435723  69.1727448   6.7982709  79.4290113  80.4835892  17.2347629
  78.8415194  80.4223537  16.4815462  79.0398550  79.9041510  17.8897774
  45.2878380   4.2591116   0.6225715  44.5787144   4.5023119   0.0273984
  46.0698700   4.2462674   0.0707650  18.3035660  67.3321772   0.6319625
  18.4264362  67.6954460  -0.2450618  17.7313435  67.9599380   1.0732231
  72.5911236  55.9749365   0.0814204  73.4412718  55.7362556   0.4508996
  71.9713926  55.3786802   0.5017133  32.5324678  22.7465129  61.6237211
  33.0539918  22.2902346  62.2840643  31.9937277  23.3586526  62.1249962
  76.0834026  72.1930075  13.7615383  75.1572895  72.2436380  13.9981461
  76.4442587  71.5276003  14.3474150  71.5946245  33.8949776   5.2700102
  72.3677683  33.8494587   4.7075093  71.7221260  33.1942749   5.9095359
  73.8533974  67.0608425   6.7482823  74.7323799  67.0603895   6.3693070
  73.2915640  66.7235899   6.0505438  20.1906657  55.3020811  23.9773107
  19.4277906  55.7427263  24.3515897  20.1163244  55.4534149  23.0350780
  46.7403555  15.1874781  59.8838520  46.0348272  14.5539260  60.0145197
  47.5365305  14.6568799  59.8555660  80.7955265  47.3489761   6.7492300
  80.6929111  48.3002853   6.7223907  80.0343513  47.0125389   6.2763101
  50.4147100  76.5912104   5.7224041  49.8075962  77.1097660   5.1944435
  49.9513721  76.4465952   6.5474087  53.2653427  22.6938748  51.4118958
  52.5879669  22.7829814  50.7414818  53.1323195  21.8169093  51.7717123
  17.7665889  62.6895857  36.1978889  18.3681107  63.0812883  36.8311119
  18.1359100  61.8245888  36.0200763  50.9667301  71.1483192   4.7326264
  50.6149387  70.8170700   5.5589139  50.3195572  71.7882586   4.4361788
  73.7923479  52.4950743   0.5648325  72.8852797  52.7658892   0.7066923
  73.9907265  52.7801943  -0.3271209  66.9001055  76.6127014   9.7896832
  66.3759327  76.4523554  10.5743897  67.4707985  77.3432732  10.0280201
  39.5292115  20.3356194  61.9033146  40.2788115  19.7490990  61.8017101
  39.0912461  20.0291991  62.6973724   6.4902717  19.8525560  57.4742603
   5.8206630  20.4645443  57.7797604   6.2756318  19.0266371  57.9078722
  23.5047984  72.5183058  15.6044674  23.6842656  71.5954876  15.7845509
  22.5517535  72.5913525  15.6554723  78.4267855  49.5505619  13.2440174
  77.5046158  49.3154430  13.3467615  78.9042139  48.8408756  13.6737108
  65.4751301  55.1352501  22.1228528  64.9830627  55.9210443  22.3608327
  65.2336454  54.9681950  21.2118030  11.9056189  73.6709929  28.2352805
  12.0969582  73.2586765  29.0776682  11.6427958  72.9461575  27.6680398
   5.5580068  46.8669176   8.7568337   6.2703377  46.4854050   8.2437396
   5.9987199  47.3608971   9.4481993  40.5929232  17.9783666  49.6993303
  40.0252342  18.7033916  49.9606705  40.7041168  17.4615753  50.4973269
  41.9778061   8.7516189  59.9082804  41.0377121   8.6690480  59.7481585
  42.0411539   9.3235844  60.6731844  32.5864601   2.5544468   4.3942222
  31.7817950   2.0365630   4.3709284  33.1899476   2.0853791   3.8180190
  22.3620176  64.9498320  27.8760839  22.2183633  65.4125786  28.7015891
  22.0605040  64.0574217  28.0461478  63.1556416  48.0352354  14.1814888
  64.0767670  48.2929325  14.1446960  62.8999758  48.1893063  15.0909543
  77.4702454  43.9592505  39.0904999  77.5398302  43.0261850  38.8885617
  78.2665539  44.1577101  39.5831823   3.2678646  65.7408619   6.0516155
   2.3641661  65.4673576   6.2089622   3.7814194  65.2523088   6.6948962
  73.2705212  62.8010654  40.4675484  72.6360369  63.5132980  40.3876257
  73.1421518  62.4643230  41.3543129  20.9158897   1.8611971  23.7235641
  20.2201343   1.2772833  24.0255570  21.4007425   2.0867065  24.5174742
  10.5063879  73.3403826  60.1824379  10.5392659  72.7367163  59.4403172
   9.8434764  72.9686832  60.7643461  82.3222637   4.9041307  64.3964148
  82.5310516   4.6978840  63.4853125  82.7917862   5.7197911  64.5709944
  62.9337263  49.2769861   2.2173142  63.5954428  48.8296080   1.6898574
  62.4999189  48.5753489   2.7028531  52.0859623  22.2504139  57.3334694
  52.2080851  21.7062807  56.5555000  51.1758232  22.5422096  57.2812033
  66.5792751   7.7133232  45.2972937  66.4418888   7.0636231  44.6079111
  65.7043552   8.0544454  45.4827261  69.1962242  62.5987768  22.3502254
  68.3461189  62.1697474  22.4476290  69.0192842  63.5232449  22.5242472
  69.1640663  50.1394796  65.1486397  68.4361649  50.5745697  64.7046900
  69.3227243  49.3499947  64.6311760  82.9345989  72.3774576  11.0688233
  83.3617496  73.1100607  10.6249022  83.1733227  71.6101694  10.5487168
  58.1714773  19.4781709  62.5258398  57.6234961  20.0737810  63.0369186
  59.0291691  19.9024892  62.5023746  36.1670423  11.2366223  46.3088179
  37.0926833  11.4787924  46.3366318  35.7176995  11.9566011  46.7514849
  81.1279106  47.5157833  19.7556210  81.4877319  47.2688198  20.6075406
  80.2692699  47.0937157  19.7268176  79.1112995  73.1022263   2.7809295
  78.6440420  73.9252138   2.9244250  78.9818525  72.6089239   3.5909471
  65.6119919  36.6384172  64.5790339  66.0811186  36.5443730  63.7499952
  64.7919559  36.1630893  64.4454622  82.4004459  78.6743546  16.8557858
  81.8738937  79.3936920  17.2044003  82.5080299  78.8840103  15.9280455
  30.4372406  13.8856876  60.3314400  29.5907450  13.9493251  59.8891449
  30.9990025  13.4248221  59.7083378  44.6481752  22.1996045  65.7461834
  43.7492657  21.8962693  65.8733797  45.1562834  21.7257714  66.4046192
  71.1370659  44.3544626  12.3715734  71.8341875  44.9867582  12.1970737
  71.2512016  43.6809874  11.7010248  78.8957739  43.9097166   3.8202846
  78.1938553  43.3340168   3.5167879  78.6745501  44.0967178   4.7326013
  40.3458023   8.0199021  19.1343594  40.0542068   8.7442261  19.6880376
  39.5730734   7.4625087  19.0425169  67.8314829  27.8642464  11.9277501
  67.3738289  27.4355555  12.6509428  67.2053432  28.5077477  11.5959549
  80.4568863  71.6830015  17.1268773  79.8765230  72.3556328  17.4832249
  80.4409313  70.9827566  17.7792799  41.3138628  16.3144362  51.5417480
  41.1813831  15.7560492  52.3078346  42.1312904  16.7786372  51.7221928
  17.6058960  71.1936235  42.7838802  17.1423268  71.2342072  41.9474030
  18.0977738  72.0137405  42.8251505   3.4404895  77.7610636  22.6619458
   3.5662505  78.1045961  21.7774105   2.6555297  77.2169971  22.5982285
   4.7549200  54.9200106  16.5750360   3.9739251  55.2398682  16.1234045
   4.5332488  54.9745464  17.5046158  62.7345896  32.5446510  68.0001783
  62.8947353  32.6196814  68.9409018  62.7158594  33.4491515  67.6875210
  51.6349840  13.0822444  59.0005112  52.4266052  12.5472283  58.9428520
  51.4829540  13.1845558  59.9400043  82.8629017  52.2883320  13.2867706
  83.7151909  52.0615578  13.6587989  82.4571037  51.4449501  13.0860901
  78.0403614  39.8246932  26.9580173  77.5925112  40.2882195  26.2503409
  78.2247353  40.5019093  27.6088762  66.6024637  44.0321827   5.0101018
  66.2075090  44.0433455   4.1382545  67.0146561  43.1707430   5.0753033
  12.1344376  47.9092360  13.1448662  11.4815891  48.1702089  12.4953175
  12.9634583  47.9137278  12.6663935  74.6540213  29.0035796  69.0908289
  74.7530365  29.4875193  69.9107265  75.3031731  29.3913603  68.5039234
  68.4537506  56.8561983   6.7686892  69.1879034  56.8915749   7.3818737
  67.6774836  56.9658661   7.3178864  81.7193794  19.5364618  67.0155764
  81.3279629  20.1123810  66.3588095  81.3679028  19.8498476  67.8489351
  55.8829546   5.0657302  58.1686687  56.8045473   5.2662164  58.3320951
  55.7284927   5.3631371  57.2720480  54.2830229  32.9508185  67.4962139
  54.1949701  32.7649426  66.5613699  54.4134045  32.0927072  67.8997898
  85.0527382  67.8550816  13.2228041  84.6649647  67.1505690  12.7036524
  85.1013374  67.4997711  14.1102862   0.7995976  63.9696074   2.4136719
   1.3715643  63.9103508   3.1789005   0.0761402  64.5281410   2.6980698
  85.1227856   3.3596379  11.7937791  84.8343372   4.2688093  11.8740034
  84.7840691   2.9306710  12.5795841   1.4548053  74.3383789   9.2310822
   1.3434830  74.0944433   8.3122051   1.4172192  75.2948380   9.2312241
   1.1863127  47.9453087   5.0759780   1.4502944  48.6416721   5.6773275
   0.4923425  47.4777699   5.5407852   4.2713326  13.3520603  43.8866043
   4.0051684  14.2533469  43.7047482   4.9626005  13.4343898  44.5435715
  77.6120343  75.5620065   0.2012450  77.4156918  74.6978035  -0.1604646
  78.5407605  75.6955495   0.0118692   8.7612730  57.6007509  15.0877082
   9.0711796  58.3024216  14.5151281   9.1898489  56.8125296  14.7541428
  84.0837574  43.8838243  13.4204423  83.9921474  44.4896793  12.6850665
  83.5707283  43.1172943  13.1645906  18.2424796  75.3949308  69.8768282
  18.6337483  74.9069834  70.6014299  18.3967268  76.3138580  70.0959444
  22.4193525  68.4821653  33.1817198  21.7015243  68.3752394  33.8058352
  22.4789000  67.6361513  32.7379298  21.6959023  62.4852276   9.3845242
  21.2800002  62.9555941  10.1070285  22.3826861  61.9648266   9.8013455
   8.7106663  43.8885975  28.1351233   8.9740729  42.9702759  28.1946254
   7.9153895  43.8756275  27.6025844  62.5618601  53.4298182  25.0565672
  62.6470089  53.6523724  25.9836340  62.5787258  54.2737150  24.6051359
  80.0200844  66.8516970  18.4614801  80.4599285  66.1535645  18.9466441
  79.2134094  66.4487123  18.1403792  21.2565804   6.4191067   5.2164960
  21.8351936   6.1547196   4.5012778  21.8440962   6.7882138   5.8759016
  46.0549450  18.5039866  12.2059619  45.6470871  18.0586636  11.4632845
  46.7341089  19.0521884  11.8129683   6.1407989  76.5125465  19.6637118
   6.4976478  76.8787670  20.4728913   5.2336133  76.8171740  19.6425855
  50.9527636  62.6174021  62.5179386  50.3381538  63.0438471  63.1151247
  50.3990078  62.2346687  61.8374252  84.8248577  45.7498407  18.3175254
  84.1836166  45.0438309  18.2363904  85.2257252  45.8101273  17.4503994
  13.6258173  72.9491854  17.1006036  14.1208982  73.1769037  17.8875411
  13.2059562  72.1160078  17.3145175  82.1323681  62.1861982   8.8378137
  81.7273617  61.3294220   8.9724988  82.9804039  62.1219587   9.2770720
  78.6921310  34.1991901  14.9814129  78.5447788  34.4239068  14.0627062
  79.0159178  35.0084639  15.3769767   3.7876999  51.4468336   2.4583665
   3.9950854  52.2524548   1.9848748   4.5806813  50.9156227   2.3860501
  70.5381107  15.7508838  68.5798645  70.4568481  15.9024501  67.6382399
  71.3919687  16.1179936  68.8087416  49.5988703  13.6332369  63.8542223
  49.7790909  14.2101860  64.5964384  50.4190159  13.1600094  63.7140512
  16.0334277  68.1357384  10.9969795  16.0107994  67.7555275  10.1188219
  16.9172096  67.9514170  11.3150799  13.5061073  81.3759899   6.1766410
  13.8105452  81.0473156   7.0225281  12.7898180  80.7887268   5.9352237
  62.8980303  70.7108402  12.2621942  62.6847744  70.9453058  11.3589895
  63.7954903  70.3808641  12.2184658  74.9000883  72.1417284   3.0309364
  74.9633980  73.0562592   2.7555099  75.7256794  71.7486429   2.7478823
  69.8591614  41.7435980  34.2356396  69.5335102  41.5866899  33.3493209
  69.2218924  42.3442221  34.6221232  81.7534256  75.2576399   3.9016101
  82.5649738  75.4757977   4.3599051  81.1687088  74.9381924   4.5888424
  55.7769299  42.7456665  55.7664967  55.9971142  43.6289406  56.0624266
  55.7205153  42.8193569  54.8138094  84.1244221  11.8153572  64.2182446
  83.4932423  12.0606685  63.5417318  83.7376308  11.0479128  64.6397257
  48.0374908  45.6745672  67.9418468  48.0406237  46.5214062  68.3880424
  47.2483778  45.2378321  68.2624674  57.4831533  61.2022114   5.0206614
  57.4951839  61.5065670   4.1132176  57.8635073  61.9244528   5.5205894
  72.5545597  64.1221857  24.4891381  73.2801771  64.1483545  23.8654208
  72.1199989  64.9688816  24.3866777   1.5308011  73.8511133  14.8237312
   0.9487350  73.9593077  14.0715837   1.8603624  72.9559135  14.7447288
  72.9249239  31.1890388  17.0833457  72.4294376  30.6498647  17.6997995
  73.8414097  31.0309196  17.3097897  79.3043184  37.0431590  67.3373032
  79.5237303  37.3351789  68.2220697  79.6568775  37.7251744  66.7656517
   4.2067483  14.7778094   1.4074941   4.2310891  15.0725031   2.3178759
   4.2463776  13.8230801   1.4636543  18.2968712  58.0310440  18.4706175
  18.7262189  58.4894705  17.7483022  18.5128152  57.1090031  18.3311903
  45.3617620  60.1514387  18.2512116  44.6561241  60.2293015  18.8932717
  45.8117771  59.3402147  18.4870934  65.7003546  26.8344378  61.2603664
  65.8252144  27.5483513  60.6350899  64.9438047  26.3527346  60.9259558
   7.4750090  68.0931044  13.4041500   7.3491156  68.5722876  14.2231536
   6.5886199  67.9452705  13.0744660  71.5022659  68.3437634  14.9092066
  72.4321747  68.4207582  15.1226985  71.2552261  67.4745369  15.2248716
  11.0859609  67.2408581  17.9942799  10.8675301  66.7399549  18.7801647
  10.4557729  66.9436359  17.3379600  55.1672554  34.8523331  60.8493376
  55.8617163  35.2670574  60.3375196  54.4243622  35.4512978  60.7746172
  35.6112361  16.7572701  61.2616777  36.4465928  16.6217387  60.8144188
  35.0161314  16.1285365  60.8532953  47.2834969  18.5905790  69.4548845
  47.1078730  18.8916087  68.5633850  46.9174385  19.2748702  70.0152206
  14.1913164  43.8326502  19.5751190  13.4131372  43.4331036  19.1864896
  14.3041837  44.6532345  19.0953994   1.0149995  39.2211843  53.5442591
   0.2640368  38.6359429  53.4453630   0.6559069  40.0973606  53.4042454
   9.8084134  68.6498165  11.7878914   9.0665597  68.4605694  12.3624098
   9.4443744  69.2118311  11.1038983  78.5580158  21.3036513  64.6744728
  79.1350031  21.3024116  63.9107275  77.7085495  21.0238600  64.3333626
   8.1850594  65.1184654  18.1884825   8.7026483  64.5811844  18.7882018
   7.7801996  65.7805634  18.7487876  27.7798390  74.3772650  14.7241735
  26.8367314  74.5390224  14.7490120  27.8961039  73.5627079  15.2132618
  73.5986280  56.3268709  17.0491672  74.2559481  55.7661247  17.4611509
  73.9704561  56.5433693  16.1941195   8.9602596  69.6897364  -0.0633380
   9.5798737  70.3360653   0.2751443   8.1209755  69.9359846   0.3255019
   7.6100284  74.9718189   8.9573199   7.8572911  75.6910038   8.3760571
   8.4210742  74.7397661   9.4096339  65.9476328   3.8995400  65.5341959
  66.2355614   4.7705311  65.2608728  65.1598454   4.0597856  66.0537577
  80.0865078  64.1801786   7.5165898  79.5489216  64.1754103   8.3085549
  80.4165459  63.2844734   7.4457425  36.3992810  29.5197463  64.2552042
  36.0633445  29.0598989  63.4858418  36.4099002  30.4415655  63.9975834
  76.6906071  27.0807004  68.0118799  77.1760941  26.2758780  67.8307724
  76.1569595  27.2197104  67.2294950  14.7821355  15.0208819   1.6495793
  15.5835497  14.7376895   2.0897719  14.7460270  14.4907200   0.8534276
  15.7834554  66.8193674   5.4608643  15.2849150  66.9087458   6.2730843
  16.3534594  66.0652781   5.6114483  53.3079338  24.1109324  62.5879860
  53.9278412  23.8993001  63.2859516  53.8523722  24.2155528  61.8076849
  67.0147657  25.9240723  52.4868298  67.4052000  26.1257553  53.3371925
  66.6405487  26.7543411  52.1921253  11.6407204   0.1854820  19.5722675
  11.5886474   1.0352623  20.0097537  12.5749195   0.0578763  19.4072843
  66.5366173  67.2732639   3.1285742  66.9492054  68.1082630   3.3494282
  66.0950661  67.0038509   3.9339826  28.6759424  43.2605124   4.0100151
  29.0302444  43.9702034   4.5457748  27.7919340  43.1221151   4.3500227
  24.1070676  76.4738798   3.4828281  24.4315505  76.7379475   4.3437642
  24.4502592  75.5889988   3.3586010  45.4769039  25.1122808  57.1125269
  45.9248638  25.2626204  57.9449701  46.0902214  24.5830202  56.6026640
   3.4737331  77.1497345  11.0011923   4.1657436  76.8563557  10.4085016
   2.6865214  77.1733999  10.4571617  67.7315092  54.1175270  49.8433590
  67.7257729  53.2465458  50.2403402  68.6041546  54.1996765  49.4586849
  19.3492520   2.1585166   0.5518294  19.0244591   2.0801310   1.4488226
  18.9917946   2.9897031   0.2394436  39.3591332  24.8810768  18.6078382
  39.0850592  24.6749067  19.5014870  38.8200212  25.6319141  18.3591747
   9.4344574   3.0089438  61.1574125   8.6952502   3.4381640  60.7266283
   9.1266447   2.8380319  62.0475054  75.4433966  64.1641283  12.1302795
  74.6814013  63.9042425  12.6480162  75.0792074  64.6775675  11.4091849
  23.7292147  64.4293213   6.4082241  24.0886712  65.3005219   6.5756589
  24.4981885  63.8689756   6.3037211  57.3157835  47.8799820  64.1494846
  58.2660866  47.7896786  64.2201948  57.1658850  48.8251495  64.1288424
  49.0411854  21.5075207  57.1151400  48.7851572  21.6643882  58.0240250
  48.7360668  20.6192923  56.9302511  86.1440591  25.4981065  61.6217947
  85.2063957  25.6636262  61.5237045  86.5524836  26.3553905  61.5014458
  84.5324612  66.1696577  15.3907371  84.4761848  65.3335333  15.8533001
  85.1020813  66.7089796  15.9392738  77.9156923  44.9059343  46.6905832
  77.8075695  44.3341875  45.9305525  77.6426411  44.3693542  47.4347258
  60.6276131  14.1842043   6.2860727  61.1958456  13.4290326   6.4379227
  61.2274265  14.9281764   6.2316394  78.4649324  65.8497334   1.4496157
  78.9479065  65.2155924   1.9795541  78.2334995  65.3702450   0.6541521
  28.0839205   7.4276471  28.9081311  28.8552332   7.7178782  28.4212303
  27.5060582   7.0556587  28.2418489  36.2491393  76.9917631   8.3532262
  36.2937689  76.1504364   8.8075507  36.7399144  77.5928974   8.9135891
  42.4673510  30.9139132  59.9082994  42.5241995  31.8460894  60.1181698
  42.3347998  30.4856467  60.7540226   1.5293451  34.3625617  42.3016214
   1.3121597  34.2015076  41.3834047   0.6834915  34.3728256  42.7495718
  46.7696905  12.6723599   1.9701736  46.7822886  13.0231059   2.8607070
  46.5357542  13.4208190   1.4212519  42.9206705   4.5486671  28.8159537
  43.6752415   5.0533503  28.5123897  42.8561258   4.7521594  29.7490430
  84.1503716  76.9370031   0.2678441  83.2905483  76.6545582   0.5795623
  84.5128632  76.1652040  -0.1670838   6.0246766  59.6799421   5.5623645
   5.2461809  59.4842196   5.0409544   5.9838957  59.0641880   6.2940848
  54.4610882  28.1399584  10.3260469  54.6955013  28.9140797   9.8141700
  55.2397585  27.9552770  10.8512139  16.4469075  80.8012104  31.1913729
  15.9132040  81.5772343  31.3621950  15.9756327  80.3334236  30.5019498
  -0.1814107  75.7339478  35.2230453  -0.2760176  75.6347847  36.1703825
   0.7233138  76.0219431  35.1015377  48.3043528   9.5777434  65.8709908
  49.1760349   9.3713540  65.5336428  48.0569601  10.3839278  65.4181147
  38.6350155  11.8306100  14.0559578  38.2434559  12.4864423  13.4790730
  38.1407523  11.9040787  14.8723757  84.9972534  30.5698991  65.2385283
  85.6946850  30.6084347  64.5840502  85.0029278  29.6618962  65.5414057
  30.1685357  26.1085701  29.5325303  29.4189191  26.7024112  29.5732856
  30.7212925  26.3697124  30.2690744  13.1975925   0.6388032  12.6651943
  13.9998507   0.5180813  13.1731689  13.5009968   0.9143522  11.8001795
  18.4364009  74.8552561  31.5280867  18.1885946  73.9339876  31.4500475
  19.2784202  74.8390818  31.9830298  14.0229332  77.0627117  14.3797970
  14.0375400  77.3537540  13.4680319  14.5875478  76.2898922  14.3936014
  69.2400503  67.8689814   1.5095399  68.7794399  68.5753965   1.9623625
  69.9519110  68.3073997   1.0434133  28.6053324  18.1963110  24.9825716
  28.3898234  19.0750134  25.2950931  27.8847957  17.6481545  25.2933478
  45.4123449   5.8375049   6.0044825  44.8311996   6.5690386   6.2127107
  45.2096033   5.6221765   5.0941187  46.1487341  12.2646797  19.7432196
  46.8375778  12.5603712  19.1479969  45.9808254  13.0185950  20.3085923
  10.1637471  74.6969748   9.9368763  10.5566525  75.1939535  10.6544220
  10.8504677  74.0893698   9.6621746  73.6549234  58.0418301   9.1130334
  73.3385992  58.3860922   9.9482906  72.9858065  58.2995605   8.4789252
  74.4888067  49.7854042  20.0883293  73.6964178  49.5162773  20.5530047
  75.1555920  49.8539066  20.7716584  73.0254602  59.7783613   0.9946278
  72.9169273  59.0935802   1.6545725  72.8223610  59.3459606   0.1651618
  62.6309252  30.6680512  55.0634384  63.2844305  30.6711602  54.3640423
  62.8632259  31.4175534  55.6116295  71.3481712  40.5341530  65.4176283
  72.2147799  40.3581381  65.7840204  70.9207678  39.6780682  65.3915548
  79.8916483  80.4145336  13.8254774  79.7572470  81.3404083  14.0278006
  80.8248234  80.2684689  13.9806557  74.6819210  80.0531387  13.0700123
  74.7543240  79.5222187  13.8631785  73.7566090  80.2943325  13.0268812
  45.3571987   9.4211674   3.5888225  45.5561733   8.5378385   3.2783830
  45.2431250   9.9358082   2.7898461  67.4722719  44.9819803  66.3423443
  68.2107306  44.4020653  66.5283823  67.7863646  45.8539867  66.5814590
  41.0081768   1.3595599   9.1536456  41.8116570   0.8394329   9.1644108
  40.3403282   0.7617089   8.8178098  30.4351544   0.4554163   2.1357942
  30.4302025   0.4017167   3.0914739  30.5054736   1.3915494   1.9488671
  30.4030108  21.7779231  12.2028482  30.9984136  21.7478609  12.9517293
  29.9640274  22.6250434  12.2797334   7.8017783  78.6832809   5.2512085
   6.9449729  79.0763330   5.0849956   8.4212220  79.2627287   4.8076296
  81.0039425  30.5319214  60.1541233  81.8353748  30.6683683  60.6083488
  80.3407192  30.8444595  60.7695007  12.4940825  76.4315319  16.4534748
  11.5823281  76.4820719  16.1664546  13.0018830  76.4492798  15.6422687
  27.6220393   6.1731815  22.2535181  27.0854282   5.4095984  22.4661732
  27.0582652   6.9227993  22.4444723  53.5890388   6.8132335  19.5551634
  53.9122868   7.2274649  20.3552604  52.8735924   7.3789561  19.2647815
  78.6786985  29.1544652  45.4364491  78.6436749  28.9412498  44.5039558
  79.5224047  28.8100958  45.7293606   0.6944770  64.5630789   6.7270696
   0.8080601  64.8799133   7.6231432  -0.2434794  64.3873835   6.6522336
  11.3736975  67.0083380   6.1981630  11.4652777  67.0169830   5.2453929
  11.6839671  67.8700399   6.4764285  80.1858616  67.7590036  57.7734613
  80.1495075  67.1367979  57.0469809  79.2959118  68.1057692  57.8365707
  14.4583452   5.3394026   1.5042521  14.0066612   5.0599873   0.7079225
  13.7556732   5.6048250   2.0975779  33.5425615   5.2452743   7.4381965
  34.0151787   4.5005956   7.0662832  32.8036404   4.8522103   7.9026598
  36.1308384  14.5126903   4.3805951  35.8290982  13.7120128   4.8096627
  35.7551026  15.2208829   4.9035826  33.9525342   9.4452894  13.7846065
  33.3191252   8.8857651  14.2340028  33.7505746  10.3294718  14.0906549
  43.7591553  53.7597990  69.8235035  44.3568420  53.0746365  70.1227665
  42.9623079  53.2909918  69.5755434  44.8940992  12.2748816  15.7538927
  44.6202993  12.9505181  16.3741994  44.4479227  11.4818907  16.0510826
  81.7930889  72.0105791   3.2201770  82.1246910  72.4088812   4.0249300
  81.3488197  72.7255630   2.7644852  70.8663273  24.6642017  60.8641386
  71.5592766  25.1159716  61.3457632  70.5962658  25.2887177  60.1908827
  54.6067524  12.7326405  14.7835112  54.0952110  13.5194087  14.5949507
  54.7666788  12.7712190  15.7264686  12.0549560  78.4757328  22.2217155
  12.7357507  78.9326668  22.7156425  11.9721150  77.6271439  22.6567674
  84.7728252  76.2256336  11.0362959  85.2816105  75.6483603  11.6056097
  85.4052639  76.5458918  10.3931165  78.5058689  79.3312597  27.0130420
  79.0759516  78.6594534  26.6389966  77.6207733  79.0515232  26.7794061
   3.2631677  64.5454311  11.2423599   2.4864155  64.6029282  11.7987609
   3.1226739  63.7587309  10.7154834   0.2923528  67.0727587  23.7511492
  -0.3117545  67.4012947  24.4169927   1.1622302  67.2662783  24.1005707
  14.5417309  70.9835339  36.1530137  15.1452792  71.6323853  36.5148973
  13.8034797  70.9771156  36.7622566  66.5219593  57.9066706  62.1317530
  65.7121992  58.4145546  62.0809984  66.3258600  57.0957184  61.6625690
   1.0820619  23.2334590  50.6834984   1.6551605  22.9806709  49.9596977
   1.4533950  22.7931857  51.4480257   7.2150189  65.7895803   3.9384806
   7.2182578  64.9531746   3.4730250   7.9674673  65.7385683   4.5279306
  65.3540134  46.9559240  65.5045128  66.0712957  47.2916698  66.0421133
  65.3867197  47.4822807  64.7056961   7.1516889  54.5182657  67.3998690
   6.9999629  55.2948284  66.8612003   6.9980943  53.7821817  66.8075752
  50.3796673  34.8116350  57.5397539  50.9698534  35.3732181  58.0422878
  50.4057264  35.1699424  56.6525269  33.9325500  13.5118377  17.9703248
  34.8011303  13.1095982  17.9688919  34.1039896  14.4517922  18.0279827
  12.5488448  69.4660234   7.0678598  13.2390809  69.9791002   6.6476709
  11.9158232  70.1176643   7.3693156  59.8930168  26.8788862  54.7762728
  59.6538973  27.5136256  55.4516649  60.0717878  26.0717106  55.2587080
  70.5443668  53.5669851  59.3340063  70.4291821  52.8505182  59.9582148
  70.0654030  53.2850218  58.5547018  13.1268358  65.0057173   6.9653165
  12.7711499  65.8451366   6.6736084  12.4471593  64.6417284   7.5325763
  42.7196264  18.9685309  21.8373156  43.4730291  19.0997946  21.2616515
  42.0202732  18.6750305  21.2533689  13.0876648  65.3229856   1.1673781
  12.2914624  65.2612543   0.6396618  13.4689057  64.4458151   1.1292219
  70.7475615  79.4979191   8.9533371  70.8967304  80.4043293   8.6842662
  71.5778971  79.2239714   9.3428594  41.8809986  12.9907644   5.1317745
  42.4652910  12.6091003   5.7868814  41.7448950  13.8908708   5.4276061
  64.8941565  63.8071394   4.5471725  65.7408047  63.7721157   4.9923587
  64.5775175  64.6966696   4.7043523  64.1130972   3.4284323  18.5458612
  64.1380787   4.0401036  17.8100169  63.4369755   3.7788641  19.1257668
  83.3783722  54.2282152   3.0078816  84.2344284  54.6553612   3.0386642
  83.4598351  53.4851551   3.6057609  80.1685333  43.1665182   1.1620779
  80.0728798  44.1140795   1.2580608  80.2967358  42.8470373   2.0552343
  22.4125910  17.0889187  26.3464165  23.2364011  17.4349201  26.0031223
  22.4560261  17.2568858  27.2877622  18.8923335  64.7481728  -0.0296040
  17.9844737  64.8117733  -0.3262139  18.9483726  65.3613377   0.7032827
  19.2048109  69.4697523  17.4483287  19.2133689  68.5255289  17.2914898
  19.1081285  69.8562479  16.5779817  33.6997223   7.2394371   3.5440654
  33.3457518   7.9184163   4.1184554  34.5300078   6.9909054   3.9503801
  16.1850441  75.3079224  28.2629180  16.9740880  75.4593325  28.7832236
  16.1052847  74.3549919  28.2205486  83.3029938  28.8008142  56.6986132
  83.4990978  27.8645754  56.7337132  82.3579502  28.8530922  56.8413830
  11.1691046  50.3562832  20.6355906  10.6971037  51.0126495  20.1231146
  11.5056181  49.7406149  19.9844813  38.1414580  29.0406966  13.1489694
  38.4161758  29.5141053  13.9342368  38.4629226  29.5747805  12.4225760
  23.7523532   1.3395132   3.4888545  24.0140200   2.1762818   3.1046921
  24.4179201   1.1626101   4.1536525  24.8092365   3.5824698  58.1269217
  24.6661472   3.9644861  58.9928436  25.6683803   3.1649372  58.1883335
  68.1253910  43.5336351  68.5333157  67.3641682  44.1138887  68.5243702
  68.1241131  43.1503725  69.4104385  21.2949777   5.7617193  15.4373085
  20.8404708   6.1255342  16.1971068  21.7701197   6.5042216  15.0642633
  73.9138460  55.5577564  68.1053019  72.9853535  55.7693481  68.2020903
  74.2629480  56.2582445  67.5542355  47.4974585  13.2270753  17.6342499
  47.7013874  14.1191328  17.9151022  47.9496574  13.1305671  16.7961383
  59.8277760  39.1000485  63.6837816  58.9580250  38.7594843  63.4745359
  60.3461885  38.9328790  62.8966761  65.0000238  23.2044387  61.3952827
  64.6315002  24.0864110  61.4457369  64.2396784  22.6244354  61.4365482
  65.0589132   8.1469965  59.5364285  64.9552155   7.5635797  60.2881622
  65.5540276   7.6315480  58.8997126  23.8555837  66.4913082  15.5610633
  23.8173819  65.8930683  16.3073087  23.0714631  66.2883234  15.0509799
  33.3295512  79.8765898  14.4316614  33.3686376  80.8292770  14.3475008
  33.6796284  79.6986961  15.3046048  11.4914739  64.3785334   8.9812416
  10.7953823  64.8508358   8.5244966  11.4673352  64.7214556   9.8745799
  54.6618557  34.0826702  45.6900167  54.8098421  34.0728307  44.7443771
  54.4025898  34.9837589  45.8825064  75.4132318  44.3140697   6.2864041
  74.8558998  44.3139601   7.0646161  75.4544783  43.3952618   6.0212171
  54.5625591  70.4275894  11.3830101  54.6018839  69.6487284  11.9380403
  55.2765799  70.9821129  11.6975069   6.5551829  56.4383411  18.9650881
   7.4682134  56.2044382  18.7980676   6.2717253  56.8826103  18.1660211
  56.6156340  32.0283246  50.4606152  55.8580208  32.0422721  51.0454750
  56.8631363  31.1049962  50.4112482  60.2531958  18.0565965  59.6588707
  60.2234077  17.6128221  58.8112783  59.4037199  17.8682625  60.0578117
  17.3133779  69.6776819  15.0075138  17.1991193  68.7475586  14.8124540
  16.4275515  69.9968624  15.1797545  27.3520470  -0.0822661   2.2937658
  26.6666317   0.4226143   2.7314106  28.1700206   0.2702209   2.6443419
  82.1665287  34.8915195  62.5286627  82.0469856  34.5420885  61.6455793
  81.3618279  34.6559787  62.9904127  21.9137669   6.6226423  18.0665386
  21.5689826   7.1132934  18.8126063  22.7821755   6.9957316  17.9152060
  25.6828022  19.3407309  38.3801031  25.7344413  19.3445575  37.4243045
  25.6964350  18.4134054  38.6169887  29.6341777  28.0603957  15.9280348
  28.7256312  28.2301092  16.1769760  29.7469139  28.5274291  15.1001453
  33.7837005  67.8771591  27.8156853  33.8829589  66.9712639  28.1084895
  32.9387116  68.1525564  28.1711864  30.2238464   2.3890948  15.0889218
  30.3138947   1.4899907  14.7731137  31.1084914   2.6389599  15.3557539
  16.8007231  77.6523447  23.2863760  16.0524261  77.0895863  23.4853411
  16.5644777  78.5038996  23.6541700  32.9474902   8.9339674  49.3029976
  32.8065658   8.0941838  49.7401857  33.7921286   8.8363504  48.8633537
  33.3053946   6.2761217  18.7889111  33.4614205   5.6684828  19.5118642
  34.0561199   6.8696320  18.8086164  29.2399430   7.6156825  12.7411330
  29.7058725   8.1372243  12.0875752  29.5754528   7.9289442  13.5810924
  45.9239101  11.4011121  57.7057743  46.6323948  11.9703686  57.4053955
  46.3406992  10.5497122  57.8385687  22.1622896   2.1465847  10.2072227
  21.5962696   2.7963591   9.7905129  21.8344617   1.3049549   9.8903322
  41.7036438   5.2910459  66.5587997  41.7291451   6.0697663  67.1148348
  42.1997404   4.6328539  67.0455217  53.7638569  57.2487307  55.7911587
  54.1901779  57.9598093  56.2695360  54.3348980  57.0895481  55.0396252
  79.3588352  80.3930664  68.8811588  79.4788313  79.4536638  69.0202761
  78.5782862  80.4558849  68.3306742  59.3128490  53.6228228  60.9998846
  59.8569059  53.5231161  60.2186728  59.2216253  54.5693970  61.1090136
  23.8948464  23.0154061   6.8565005  23.9340830  23.4737349   7.6959211
  24.6292639  22.4021268   6.8839103  71.8550622  40.8669704  69.6392703
  71.1851823  41.4432721  70.0071970  72.0910966  40.2832425  70.3602277
   4.5462680  52.6404142  13.6630845   4.1118276  53.4528923  13.9226604
   5.3196311  52.5922203  14.2250609  74.7788334  59.9609327  58.3439970
  75.4907084  60.3624344  58.8422489  75.2152109  59.5232916  57.6130533
  60.6299877  35.2146006   7.3890680  61.3355541  35.2996159   8.0302995
  59.9571562  35.8248353   7.6909679   6.7944628  79.0755177   9.0776473
   7.0409924  78.4077120   9.7175616   6.9632763  78.6673975   8.2284307
  37.2511220  23.5670948  13.2648396  37.2677588  24.0850306  14.0696371
  37.1748042  22.6612282  13.5645282  71.7763710  46.0322952  64.2174149
  71.8471289  45.5649853  65.0497913  71.6571236  46.9487524  64.4666338
  57.2115326  22.4246716  23.6697912  56.3766193  22.8030849  23.9453840
  57.8105640  22.6146793  24.3917966  82.8113079  51.2111855  61.7535543
  82.4301243  51.6651726  62.5050974  83.3868217  50.5507421  62.1393585
  35.9082198  58.0444288  14.8318362  36.2338495  57.2321701  15.2196980
  35.5800414  58.5501432  15.5753314  52.2178125   7.3136926  36.2553501
  53.1238985   7.6187223  36.2085152  52.1799660   6.5802473  35.6414628
  34.9093032  57.4441338   1.5993881  35.4318619  58.1270790   2.0198038
  35.3762269  57.2517300   0.7862493  17.8140473  51.2209415  54.8845720
  18.1368291  51.0060978  54.0094233  18.0844843  50.4808044  55.4279804
  27.0416832  71.2722301  32.4626493  27.6780844  71.8794966  32.0852184
  26.3302231  71.8327427  32.7722907   8.4891701  78.5512686  27.2888398
   9.4459760  78.5531759  27.3162532   8.2640177  77.7358961  26.8408370
  77.3562527  56.1792088  66.4955997  77.7628565  56.8135452  65.9052467
  76.5029383  56.5592289  66.7045641  21.3818979  17.2452223  28.8239956
  21.8340135  17.3130131  29.6649647  21.0585737  16.3446629  28.7977982
  55.1806688   5.1675451   6.4914906  54.5885944   5.4152691   7.2016394
  54.6965790   5.3757811   5.6924123   3.0327854  34.3110728  67.7139950
   3.6939988  34.8302937  68.1716442   2.1972555  34.6663284  68.0171728
  82.0540142  28.8472986  52.2322226  82.0387363  29.7213745  52.6220798
  82.7295017  28.3783150  52.7221251  31.8385863  73.9196873  37.9294801
  32.4911451  73.8496161  38.6262512  31.7054915  74.8612213  37.8197813
  26.4516902  10.4352176   7.6625437  25.8790445  10.9767711   7.1193767
  27.1133924  10.1030791   7.0558602  15.7343209  64.5642424   7.6340455
  15.7988811  64.2739916   8.5438907  14.9343300  65.0891018   7.6062697
  59.5244265  49.6122932  56.1791897  59.1684246  49.7276068  57.0602083
  58.7599468  49.4244576  55.6346464  34.4259977  22.0080996  11.8254900
  34.7836971  21.5638685  11.0567629  33.7251973  22.5601673  11.4786041
  68.0673742  11.8920028  69.6929121  68.5288143  11.7089450  68.8745022
  68.0482101  12.8473926  69.7485399  82.8003311  66.4610577  51.8738127
  82.5225449  66.0506153  52.6927137  82.1009254  67.0810938  51.6673660
  41.3645363  77.2782421  21.1279297  41.8224478  77.8021526  21.7852473
  40.8856583  76.6227913  21.6351724  34.7445822   2.7930492   6.7618310
  34.3208241   1.9901389   7.0651394  34.8634291   2.6605740   5.8213216
   8.7968403  35.0438428  49.9678326   8.8756979  34.2686152  49.4119263
   9.4863129  35.6314301  49.6586418  85.5321217  71.1879826  58.6379385
  86.0321617  71.9806290  58.8326120  86.0018921  70.7812023  57.9098749
   9.4788826  39.7051978  53.2967710   8.7947619  39.9014807  53.9368391
  10.0951266  39.1452718  53.7689543  78.0646801  54.3103409  47.7824354
  78.4343624  55.0243092  48.3018732  78.7875652  53.6918831  47.6766682
  41.4074421  73.2344532  27.3203301  40.4625940  73.0819464  27.3050213
  41.5003967  74.1289473  27.6481533  40.2354813  73.0974245   6.1837339
  40.5149078  73.0121469   7.0952600  39.7298980  72.3028040   6.0128653
  72.2081280  57.6792622  58.8101339  72.6093245  56.8104982  58.7872839
  71.3174105  57.5402784  58.4883642  68.3575392  70.6589317  61.0759878
  68.0593252  70.3684902  61.9379282  69.0798807  70.0687933  60.8610630
  47.4702358   5.4872954  14.6716559  46.9098091   6.0954362  15.1536453
  47.3189878   4.6395969  15.0897014   6.6205752  71.0263872  56.1115885
   5.9989607  70.4921865  55.6171608   7.2877264  71.2723398  55.4707718
  59.1882181  67.3265362  66.4413738  59.0498734  68.1796312  66.0298967
  59.9086380  67.4705744  67.0549536  81.4365578  25.3314471  50.2325010
  82.3681831  25.1218915  50.1662970  81.0881901  24.6833134  50.8447027
  46.0953379  64.2142725  49.7971535  46.3367367  63.4263372  50.2841043
  46.9043398  64.4846869  49.3628454  47.3618126  12.4390924  49.2165565
  47.7417183  12.4574649  50.0949478  46.6833687  11.7654586  49.2630720
  53.9381218   3.5281089  37.3763490  54.0549564   3.7219456  38.3064079
  53.3836937   2.7479541  37.3620892   3.7361851  57.6548100  42.8032970
   3.2687449  56.9482613  42.3577452   4.4863182  57.2243595  43.2134724
   3.4709558  24.2359519  18.3547759   3.1259227  24.4683647  17.4927044
   2.8286368  24.5859504  18.9721572  59.9483538  11.3185477  49.1685534
  60.4080677  10.5727851  48.7828922  60.6042099  12.0151341  49.1977978
   0.9330981  35.3121495   3.0367529   1.7826022  35.5960846   2.6991791
   0.4638988  34.9923420   2.2661643  17.9784739  54.0207100   1.2685263
  18.0925536  54.3230486   0.3675227  17.0922494  53.6596060   1.2895963
  65.7026148  11.0591185  59.2298222  65.4864120  11.2390304  58.3148766
  65.2378988  10.2467084  59.4304609   6.9222879  58.4534836   8.7792623
   7.2412181  58.0597734   9.5913637   7.5789386  59.1143370   8.5594600
  45.0983572   5.4316723  65.4154158  45.4765129   6.3108951  65.4014254
  44.9762726   5.2087426  64.4925785  57.1934223   0.5774711  65.0323820
  56.5438032   0.5909116  65.7352638  58.0354023   0.6415896  65.4831553
   5.7620287  30.5194712   1.7030078   4.9293625  30.8639979   1.3802077
   5.8409286  30.8743548   2.5884813  22.0110226  67.9573250  11.9177568
  21.2701440  67.6713467  12.4521244  22.6603580  68.2615614  12.5518203
  59.7587442  11.6558397  58.6513329  58.8794994  11.6205966  59.0280581
  59.8615122  10.8158386  58.2040405  71.2877321  17.1710968  65.9208393
  71.9103718  16.5652728  65.5189323  71.3247204  17.9530036  65.3699446
  19.2720664  34.3628645   5.3452253  19.4723928  33.6517119   4.7366482
  20.0250173  34.9505925   5.2830046  80.6708813  53.3402205   9.9368793
  80.4922962  52.5769472  10.4862010  79.9174833  53.9147806  10.0729430
  82.8731918  50.2299500   2.0416805  82.0709324  50.7297325   1.8905857
  83.3237076  50.7054234   2.7396715  17.5426137  50.7714987   3.3328846
  17.5147188  50.8961010   2.3842394  16.6370201  50.8947754   3.6173773
   4.4855243  40.7521868  11.3060772   3.6779639  40.2383089  11.3087165
   4.7575501  40.7755470  12.2235119  39.3188620  78.5195541  59.2911959
  39.5913529  79.1154003  59.9890137  40.0396204  78.5423517  58.6617374
   5.3460974  43.9974308   4.6383053   5.4715288  44.2908859   3.7358737
   4.6007299  44.5078564   4.9547338  59.3632174  60.0347757  56.6323662
  59.7451830  60.9014797  56.7707777  58.7698793  59.9133730  57.3736095
  65.9557581  33.7252402  55.9776497  65.7228374  34.2015290  55.1806974
  65.1689482  33.2262230  56.1970472  69.6905947  51.4636326   7.5720555
  68.9541340  52.0643663   7.6859874  69.3037510  50.5920219   7.6550025
  80.7294464  71.5962410   7.6392144  80.6348991  71.4137411   8.5740870
  79.8650408  71.4135456   7.2709012  11.1056244  65.8613682  11.1667836
  11.9027114  66.3237047  11.4258730  10.4203749  66.5289307  11.1988378
  44.8591328   7.0600969  49.7345161  45.1359653   6.7228925  48.8825274
  45.3381062   6.5279579  50.3698492  54.1562319  11.7930615  59.3431616
  54.5126772  12.6260757  59.0345097  54.5972729  11.6386569  60.1785517
  30.5277705  68.7516451  63.4752226  29.5905900  68.7324524  63.2814217
  30.5808473  68.5912704  64.4174004  36.4061761  68.0559969  28.1734443
  35.4495430  68.0797863  28.1506300  36.6206264  67.1273470  28.2620502
   8.5177433  63.6051273   6.9268340   7.6708925  63.4241915   6.5189874
   8.5469490  64.5586586   7.0053011   3.6532712  36.2391520  14.6747065
   3.8634551  37.1300220  14.9547124   3.8325667  36.2350297  13.7344575
  66.3448191   6.9379234  64.9876642  66.5274048   7.1448106  65.9042311
  65.4469204   7.2389686  64.8484516  76.2702417  55.1721144   3.1749237
  76.2955570  54.2155170   3.1522533  75.9599638  55.4241753   2.3051980
  72.4610376  45.5607653  19.0481555  72.7249289  44.6406889  19.0555668
  73.2385874  46.0353184  19.3421745  47.6624870   4.7524932  55.4536200
  47.4362087   3.9405423  55.9072351  47.9525566   5.3426176  56.1492109
  32.3833036  75.6084538  52.2087193  31.9471264  75.7151222  53.0540609
  31.9363713  76.2252951  51.6290712  20.0360107  52.5061178  16.0302877
  19.7072613  51.7561817  15.5345583  20.8486557  52.7489042  15.5865586
  55.5349398  20.6573939  69.3500710  54.9126339  20.3120017  68.7100172
  56.3934898  20.5083203  68.9539671  37.2136974  12.8253257  58.2439852
  38.1338000  12.8572106  57.9820156  37.1631074  13.3958721  59.0108919
  55.5359030  61.6965485  57.5999117  54.7479963  62.1432924  57.9095125
  55.9688807  62.3376465  57.0362139  35.6359482  77.9779243  62.5467825
  35.0117779  77.8779888  61.8279934  36.4904356  77.8187132  62.1458626
  15.6766307  63.3748436  32.9264545  16.5602624  63.1602812  32.6274729
  15.2732003  62.5263977  33.1098127  77.8309774   2.7002466  50.2217913
  77.7114868   1.7532694  50.2938128  77.2908688   2.9535669  49.4732332
  34.9887800  78.9047718  58.3863592  35.7905769  79.4110584  58.2558680
  34.3841696  79.2386484  57.7236319  59.3590927  25.3324509  57.2168303
  58.4733772  25.3868914  57.5756884  59.4748545  24.4063807  57.0041800
  80.6158829   4.8815611  59.6689224  80.5416489   5.7156509  59.2052269
  80.7014465   4.2282906  58.9745569  55.9325409  12.7356625  31.4210653
  55.2137184  12.4395037  31.9794726  55.9438562  13.6866403  31.5294337
  51.3886642  77.5433683  67.7030706  51.3626957  76.7485905  67.1702623
  50.4687548  77.7639341  67.8491831  28.2788301  79.3503475  63.5550642
  27.8588557  78.6790800  64.0928888  28.1098843  80.1699257  64.0197992
  27.8331065  65.5401468   1.7814095  27.5663376  64.9310589   1.0928772
  28.4141064  65.0271368   2.3430945  31.8647218  79.3931341  69.6334887
  31.6484618  80.3043938  69.8311520  31.4903736  78.8950872  70.3601551
  53.4207964  17.9367924  56.5535641  52.5528526  17.6512599  56.2682915
  53.5394764  18.7919414  56.1402035   5.8856571  10.2519870  66.8110943
   6.6582435  10.3003776  66.2480688   6.0183656  10.9432197  67.4598026
  16.6763747  46.0926867  11.0847592  17.2154140  45.5320835  11.6427851
  17.0664465  46.0104704  10.2145207   2.7788618  31.0714245  47.9302597
   3.2550019  30.4090285  47.4295044   2.9908335  30.8793521  48.8437176
  77.4414301  15.2343786  65.6809187  77.1547318  14.3854260  65.3443003
  78.0718231  15.5485511  65.0327396  69.0496540  33.2551265  42.5249958
  69.4629431  33.5231376  43.3457232  68.6095190  32.4317694  42.7361631
  57.9581356  21.8216491  66.9623041  57.3562956  22.4168205  67.4092865
  58.0916929  21.1053371  67.5830221  85.6730652  11.9314849  54.2890263
  84.8877335  12.1214926  54.8022270  85.3974247  12.0430505  53.3791876
  21.1869550  57.0523548  14.7487211  20.2750707  57.3186445  14.8661518
  21.5578747  57.7173662  14.1687131  46.3317277  -0.1900610  48.8091803
  45.5107345   0.2759425  48.6509275  46.7138471   0.2491919  49.5689678
  45.7847929  78.3626509  64.9778223  45.0855589  78.7253523  64.4339943
  46.1001015  79.1070032  65.4904175  80.9059429  17.9473889  64.1482496
  81.2728977  18.7885725  63.8762474  80.8625412  18.0024588  65.1028776
  59.1667700  27.5700188  63.2629251  59.6356487  26.9917130  62.6613045
  58.9734173  27.0199561  64.0220547  78.8910007  63.5590458   3.0697325
  78.0505610  63.1852198   3.3345798  79.4132614  62.8047657   2.7967262
  64.2295694  12.8031290  67.7064514  64.1495085  13.7335277  67.4962616
  63.3292913  12.4780166  67.7009964  81.0825062  27.9172921  46.2872601
  80.8751965  27.0380735  46.6038513  81.8248844  27.7902865  45.6965113
   5.5976129  43.0249023   9.6226704   5.4707086  42.8774214   8.6854529
   5.1450431  42.2939825  10.0435877  32.2264957   5.2787679   5.1618356
  32.4011326   4.3930349   4.8436987  32.8866339   5.4243523   5.8395201
  32.9274487  73.2899237  44.9371004  33.8172364  73.2218456  45.2833366
  33.0305767  73.1915379  43.9905739  71.8405151  11.0566592  41.7679596
  72.5542641  11.5711784  41.3910437  72.1946335  10.1700151  41.8364620
   2.4260218  80.5446911  47.8568649   2.1712679  80.5286503  48.7794065
   1.5964417  80.5531597  47.3794174  65.6766319   4.7730160  47.8367138
  66.0696936   4.1929066  48.4887934  66.3960409   5.3373629  47.5535393
  75.4246044  14.3933463  62.5021839  76.2885714  14.3346989  62.0943213
  74.8461962  13.9155030  61.9077587  51.2491894  70.3900576  52.8242540
  51.2485123  70.8249617  53.6769485  52.1024895  69.9590445  52.7758980
  64.5454550  17.9235137  65.5378675  63.8137102  18.4452391  65.2083445
  65.2316999  18.0305660  64.8792028  18.0496573  60.9644270   2.6870117
  18.1498337  61.3283634   3.5666403  18.6303520  61.4944029   2.1409759
  21.4258265  25.7419991   2.2461368  21.1922550  24.8569107   1.9663283
  21.6897511  25.6422162   3.1608060  83.7061691  24.5425749  68.9493752
  82.9772568  25.0121069  68.5438395  83.3965492  23.6401057  69.0263224
  73.9848185  25.1003504  67.1012783  73.8445187  24.7706556  67.9888868
  74.1024494  26.0438180  67.2120237  69.3092155   7.0499080  45.8664894
  69.4866467   6.2045372  46.2789202  68.4306097   6.9570112  45.4981804
   1.2848973  26.1502242  51.1466360   0.4980683  26.6951990  51.1349869
   0.9544291  25.2536035  51.2022448  26.9127560  58.7774086   9.0449363
  27.7338624  59.2270041   9.2446363  26.3364625  59.4666576   8.7147075
  34.6573234  68.7125731  34.0035319  35.3092575  68.6055422  33.3108854
  34.2640018  67.8450823  34.0983677  79.5181656   2.3745944  56.2709856
  80.2564621   2.3899254  56.8800116  79.5388842   3.2329288  55.8478260
  56.7952108  25.5637908  58.4493065  55.9177971  25.9165168  58.3011103
  57.0046806  25.8130646  59.3494272   5.7326090  52.5656176  28.2440186
   6.0561776  52.0015287  27.5416350   6.4651072  52.6290464  28.8569236
  63.4843349  29.5265484  67.2891331  63.0788040  30.2274776  67.7995014
  64.4206524  29.6096492  67.4697781  40.0990343  20.9518838  56.8463421
  40.7717133  20.8062100  56.1811304  39.2755938  20.9518647  56.3583040
   4.8962983  48.3679628   3.3324599   5.8270454  48.5913563   3.3386001
   4.6448058  48.3641338   4.2560232  74.2070913   1.5837809  47.3085022
  73.5143995   1.9701469  47.8443480  73.8316965   0.7643716  46.9862032
   9.7045708  52.0122290   4.0458554   8.7537050  52.0609713   3.9473131
   9.9470633  51.1876154   3.6246195   1.6495077  28.4213281  67.0396376
   1.1452599  27.7095771  66.6454601   1.8703559  28.9938307  66.3049936
  12.0821500  13.8858831  58.3220530  12.2694635  14.0484917  59.2465544
  11.2176037  13.4750402  58.3214951  45.1539993  15.9239268  57.6908636
  45.8652163  15.6794810  58.2830191  44.4954252  15.2400041  57.8123665
  60.7222080  19.5007372  66.8449020  61.2928009  19.6179020  67.6044607
  60.6332016  20.3788567  66.4744759  68.0837393  48.0556631  69.9667168
  67.9594374  47.4029112  69.2777348  68.9515162  47.8654671  70.3231049
  10.5048037  61.1929703   3.8014084  11.2581563  61.7753124   3.7035874
  10.8842444  60.3502941   4.0507185   7.2132373  59.0210915  32.7097535
   7.5802398  59.8998260  32.8065348   6.6242772  59.0889359  31.9582510
  51.3938999  11.2860429  61.5074444  51.7782545  11.9636559  62.0636320
  50.8922100  10.7373929  62.1103716  60.1902008  77.6431513  64.2493486
  61.0625887  77.5013447  64.6168566  59.7584867  78.2250404  64.8748589
  34.7997141  80.8321285  61.8235397  34.7359824  79.8925018  61.6524601
  34.2775965  81.2375832  61.1312675  75.6246901  18.6942804  50.4797316
  75.2365303  19.2892182  51.1213017  74.9479342  18.0355620  50.3237772
  27.3229933  55.3571749  16.5133977  27.5398064  55.3845835  15.5814779
  26.7066240  56.0789680  16.6372371  10.6814921  32.1749306  11.3717341
  11.5975022  32.3162031  11.1325693  10.4308248  31.3801813  10.9008074
  44.7340775  77.5484324  48.3535290  43.8585854  77.4113560  48.7154007
  45.3225517  77.4312544  49.0993166   2.6823348  28.4937787   0.2742638
   1.8505576  28.4789944   0.7477192   3.3239698  28.1714153   0.9072079
  19.0897083  66.5844440   8.1219941  18.8178909  65.6681252   8.1739664
  19.1838062  66.7535591   7.1845627  79.3791199  19.8525476  55.1178360
  79.1830158  19.7269094  56.0462713  79.9666166  19.1297793  54.8971891
   1.6125473  53.7860203   1.7884184   2.4068162  53.4799528   1.3505922
   1.1118101  52.9887104   1.9610226  51.6852427  27.2767878  62.1497869
  51.2282085  28.1169391  62.1110678  51.5830135  26.9901156  63.0573082
  57.0858669  29.2836046  63.9646721  57.3816013  30.1521277  64.2375088
  57.8728771  28.7400270  64.0017033  83.6833382  31.5439200  56.3667202
  82.8786659  31.4290833  55.8612013  84.0500641  30.6625319  56.4367056
  23.9269185  64.2313766   9.8338443  24.0403056  63.6795807   9.0599608
  23.2360554  64.8472834   9.5897120  77.8212357  24.9074674  47.6778936
  78.1517935  24.5213294  48.4889841  78.5708714  25.3784418  47.3139429
  29.5487356  80.5632305  61.5481424  29.0189385  80.3159523  62.3060322
  30.2800083  81.0577488  61.9181824  76.5575075  10.9937298  51.6818571
  76.8668747  10.7222462  50.8176708  77.1753931  11.6717017  51.9553614
  77.3297167  26.6425276  63.5119152  77.7659369  26.4450598  62.6830912
  77.1606684  25.7856941  63.9036942  15.6245518   9.8350143  51.6781092
  15.0781322   9.1841382  52.1185827  16.4010322   9.9107033  52.2327089
  59.3975878  13.7513077  38.2049990  58.5001326  13.6360836  37.8926992
  59.8058367  14.3231320  37.5549364  75.3479004   9.6493709  40.9889889
  75.1166630  10.3152621  40.3414154  74.5508289   9.1297305  41.0933018
  59.5393944  21.2183928  58.8619852  59.9104500  20.8759713  59.6751881
  58.6205721  21.3873339  59.0704489  55.4403734  13.8970840  58.3271027
  55.4691696  14.7400272  57.8744984  56.2238932  13.8935673  58.8769388
  40.3236771   7.2516680  63.7843227  39.6956563   7.4943668  63.1039429
  40.6992531   6.4255255  63.4799147  21.0606265  53.5797834   2.3719998
  20.3070331  54.1353750   2.5711200  21.5169239  54.0388012   1.6667828
  73.0189800  46.0945749  11.4633620  72.5512600  46.9292021  11.4338565
  73.8947344  46.2990665  11.1355329  39.7888517  72.4032450  57.1168995
  39.4896603  71.5780878  56.7350197  40.7440281  72.3456383  57.0933676
   8.0048013   1.0892522  48.3002281   7.0951325   1.1715722  48.5865116
   8.1585801   0.1453659  48.2594538  27.7541018  10.7796073   4.9366632
  27.2920775  11.5053999   4.5171541  28.5592365  11.1716628   5.2747238
  42.0398760   5.8590651   5.6248099  42.2324228   6.0822713   4.7141308
  42.4451399   5.0012678   5.7519978  68.3488131   1.2723757  38.0516982
  68.3650923   1.0129312  38.9729214  67.8533983   0.5787133  37.6162314
  47.4493217   3.7271488  43.6879158  47.1119928   3.2264376  44.4306993
  46.6738081   3.9334527  43.1661415  72.9919338  13.3900106  58.4642935
  72.2966385  13.7586308  59.0091944  72.5291204  12.9039431  57.7818203
  59.7426891  41.2440491  65.0736380  59.8995018  40.4771852  64.5226669
  58.8008499  41.4001799  65.0043774  13.7239993  70.9530163  69.3849421
  13.3518732  70.4860973  68.6367846  14.5602667  71.2909698  69.0645075
  45.7871914  72.2201395  66.3022184  45.2214861  72.2379398  67.0741606
  46.6062498  72.6187658  66.5962648  74.4391251   9.3436152  63.3994102
  75.0249720   9.4870430  62.6561451  73.6014795   9.1059875  63.0017710
  29.4173384  70.3598404  68.9246988  28.8000679  69.8754787  68.3764267
  30.1198506  69.7349024  69.1040230  62.9098749  19.7633135  63.6428165
  62.7352095  20.5318737  63.0996466  62.3944044  19.0639389  63.2410765
  69.1931105   0.2302875  63.8188314  68.4793091   0.8637705  63.8924599
  69.9866724   0.7458280  63.9627504  38.7382197  52.9196501   3.8680390
  38.9211059  53.2898331   4.7316074  39.2706060  53.4403181   3.2666191
  74.1028118   0.6281678  39.4070363  74.0035725   1.3914172  38.8379717
  73.4782600  -0.0102128  39.0626049  56.9370890   0.0798515  59.2348957
  56.4724922   0.9165831  59.2510176  57.4284697   0.0628688  60.0561666
  60.7807350  23.9998245  63.6852980  60.3877258  24.4864011  62.9607153
  61.6386986  24.4058156  63.8089800  13.2700169  50.5952406   5.7773596
  14.0590215  51.1295748   5.6868541  12.9641175  50.7686710   6.6676289
  54.5900154  32.1106911  52.4061966  53.8246775  32.6837206  52.3600817
  55.1291704  32.4866986  53.1020117  61.1921835   4.2760929  53.1747293
  60.7995129   4.1012645  54.0299940  61.0516500   5.2123320  53.0335283
  56.0616732   5.6791228  19.3373919  56.3275957   5.9012789  20.2296710
  55.1624298   5.9998482  19.2685974   8.3185005  66.3036346   9.7351021
   8.8350344  66.9332933   9.2321599   7.4150568  66.6056204   9.6411556
  80.3176785  10.6338370  66.4454985  80.4062939   9.9630684  67.1225882
  80.6047153  11.4422250  66.8701744  16.5596890  48.2460880   8.1498802
  16.5571761  47.2910261   8.0859905  15.7278478  48.4600639   8.5723567
   0.6194085  38.3640146   7.9696476   0.3740748  38.5511231   8.8757563
  -0.0256983  37.7213144   7.6746809   5.1248389  22.4687314  57.1632051
   6.0697538  22.5808859  57.2670794   4.7407463  23.0670977  57.8040361
  77.4806833  45.2859497  67.3518133  78.3026361  44.9285746  67.0157957
  76.8406010  45.1016331  66.6643906  75.4129076  26.9115567  53.9778805
  75.6950283  27.2986054  54.8066330  76.0033798  26.1696863  53.8467121
  14.6640861  66.6509914  17.2695386  15.4212403  66.1504841  17.5735867
  13.9427292  66.0218382  17.2761965  47.0994520  18.3517861  52.0347595
  47.2656870  19.2924678  52.0957184  46.7015219  18.2342887  51.1721611
   7.4580306  50.3124094   5.6820911   8.0006790  50.2954006   6.4704281
   7.3794627  49.3935871   5.4255348  78.5746813   5.5568039  48.0626106
  78.5323429   6.1854851  47.3420525  78.7096119   4.7111231  47.6350021
  30.9827375  54.8817444  58.7559652  30.6853533  54.8745728  59.6657658
  30.4402876  55.5466938  58.3319092  62.0128965  58.5876894   6.2871808
  61.5012264  59.0854311   5.6494659  62.8405571  58.4070015   5.8415836
  26.6026258  80.3463078  57.2098589  27.2442555  80.5654049  57.8855371
  25.9345794  81.0278225  57.2839403  66.5645742  19.8353016  68.8414860
  66.0952520  20.6694674  68.8531685  66.4779997  19.4992602  69.7335720
  56.1282539  48.8643789  20.0450444  55.1906300  48.7160158  19.9222493
  56.1802959  49.7063351  20.4974079   9.8382974  58.9828157   8.0959207
  10.0940228  59.6552753   7.4645460   9.7617757  58.1827974   7.5759667
  85.3703976   8.6397713  55.8855009  85.1611710   8.4378248  56.7974663
  84.5328522   8.5723233  55.4270220  18.0757964  77.1810818  20.5873227
  17.5009727  77.4529791  21.3027811  17.5151098  77.1936655  19.8116267
  72.9943562  16.8140268  68.9099169  73.5680628  17.2982931  69.5037031
  73.5462284  16.6138279  68.1538820  21.6774845  41.7880821   5.0383312
  21.2333322  42.1142387   4.2556557  21.1435676  42.1056271   5.7665676
  65.7767916  34.8134971  47.2445869  66.3968420  34.3296456  47.7901649
  66.2754345  35.5651498  46.9242716  33.1043434   4.4788137  66.9937849
  33.3581090   4.6183074  67.9061317  32.6923943   3.6148065  66.9891834
  65.8948708  30.5148268  64.5962667  66.0675430  30.2190065  65.4900837
  66.7524624  30.5060387  64.1711903  83.5472870  59.9976540   6.5761286
  84.3726254  60.1322651   6.1103666  83.8087845  59.8111868   7.4778390
  80.2287006  52.4864149  61.7969704  81.0602570  52.8461027  61.4881325
  79.8973656  53.1419945  62.4106979  80.7369900  56.9984055  61.2318373
  81.3975143  56.4323187  61.6311932  80.1931000  56.4040995  60.7149124
   4.9378583  57.4596643   7.1712112   5.5674660  57.6831436   7.8566909
   5.2583838  56.6322994   6.8120962  48.3613157  23.9762449  62.6696873
  49.0051699  23.8331676  61.9759941  48.8817835  24.0369582  63.4707260
  73.8438511  36.6498637  60.7773447  74.7004747  37.0506620  60.6297445
  73.9167976  36.2392378  61.6389132  69.4794369  35.6478810  63.6529398
  68.6844921  35.1476312  63.8374376  70.0606060  35.4538655  64.3883514
  35.5980039   1.0202669  10.6853271  35.2186990   0.8801026   9.8177356
  35.2697897   1.8782151  10.9544623  60.2002668  30.5582333  64.3063974
  59.4607067  30.6986356  64.8976469  60.3185272  29.6084738  64.2921066
  85.1209450   1.9029997  55.8980227  84.6535397   2.3445478  56.6071033
  85.7699299   2.5423804  55.6043530  28.4119821  78.7287426   1.4442572
  29.2387009  78.2500219   1.3842815  27.7397227  78.0671024   1.2813580
   7.1455318  33.0452561  59.3605042   7.6363558  32.2371650  59.2111301
   6.6294765  33.1629443  58.5629654  85.4820347  32.3787808  32.5952125
  84.6249771  32.7828741  32.4596381  86.1070919  33.0899167  32.4544239
  38.1050730  79.6301651  43.9400101  37.9962730  80.5338383  44.2362595
  39.0528083  79.5106268  43.8788509  38.4482241  80.1133156  48.5082960
  38.0946088  80.5725288  49.2700815  37.7017832  80.0215912  47.9161453
  80.5793095  59.4441700  47.0426941  80.4113674  59.8552179  46.1947155
  80.7946587  58.5360384  46.8302011   4.5157731  52.6818895  60.3403759
   4.3739283  52.6942492  61.2869263   5.0137317  53.4797525  60.1623726
  49.4042301  29.0726590  66.0792446  50.3595686  29.0766311  66.1387920
  49.1578722  29.9967146  66.1199570  39.8601508  25.0181770  62.8859520
  38.9216995  25.1768398  62.9877663  39.9157715  24.3227839  62.2305393
   8.9432752  50.1138973  40.2377796   9.0359318  49.1707563  40.3724098
   9.6387798  50.5011845  40.7693005  72.4329615  25.2235055  49.0435410
  72.1147966  25.3165388  48.1455708  73.3564281  24.9906564  48.9475250
   6.3796043  40.7858324  63.8716364   6.9809246  40.0636292  64.0534782
   6.1767060  41.1511707  64.7327948  83.8132858  24.7403049  41.1972427
  83.8306046  25.3216147  40.4369688  84.7172546  24.7304702  41.5118599
  48.0550814  46.5385342  46.7058754  47.5489616  45.7401800  46.5551901
  47.7515793  47.1455145  46.0308266  80.7453823  10.4027033  70.1485252
  80.7038593   9.7101754  69.4890451  79.8430920  10.7121897  70.2279854
  80.1262760  10.3964961  53.2741356  80.3588009  10.7543314  52.4173260
  79.6322632   9.6010697  53.0754423  11.9901478  53.6331892   9.0582782
  12.7879977  53.1043577   9.0593785  12.2043896  54.3887997   8.5111141
  48.3927202   7.2134858   7.1248317  48.7918139   6.3446862   7.1711415
  47.5861597   7.0803249   6.6268778  48.5845757  27.2794652  53.6921692
  49.2500782  27.0526457  54.3417025  47.7705479  27.3350883  54.1926670
  17.2669017  70.2523375   3.4578174  16.7791140  71.0713577   3.5444292
  18.1264412  70.4447079   3.8325390  39.3043184   9.0178204  59.6789646
  38.9270306   8.8697243  58.8118076  38.5974383   8.8030303  60.2875805
  70.7440805  44.5393467  69.0419436  71.1487913  44.4130182  68.1837559
  69.8495579  44.2159510  68.9348459   0.7590141  50.4358006  57.9377651
   1.0410811  49.6864414  58.4622955  -0.1691630  50.5392265  58.1475735
  60.0226974  21.4839768  62.8459358  60.3320551  21.3576508  63.7429142
  60.1231813  22.4226761  62.6878881  35.8972788   3.7422836  17.8723669
  35.6244802   3.9888373  16.9886112  36.2940502   2.8774598  17.7680349
   5.3798556  81.3617706   7.0312434   5.2274364  80.8468533   6.2388635
   5.1993012  80.7552624   7.7494276  78.7852573  46.1168528  52.3671579
  78.0148506  46.3387966  52.8900766  78.7010384  46.6515446  51.5777063
  33.1930113  78.0621529   3.3814803  33.9030409  77.4229288   3.3224285
  32.7968860  77.9016829   4.2379650  83.3017159  13.1054127  67.2247553
  82.5151920  13.2084322  66.6890287  83.6456394  13.9937496  67.3185968
  85.1326466  36.1017060  55.4419231  85.5986786  35.2701569  55.3548574
  84.3842125  35.8991909  56.0032225  32.4034572  63.4246254   1.1911356
  32.9686999  63.6216784   0.4442059  31.7857242  64.1551065   1.2233175
  71.8147087  34.8287964  62.6691914  72.4130392  35.3602815  63.1943178
  70.9476042  35.0207949  63.0262661  62.7881861  26.3452554  51.9127941
  62.1678114  25.6250834  51.8000412  62.2522402  27.0776320  52.2171259
   5.3868699  34.1897488  48.6084843   4.4458196  34.0163326  48.5843372
   5.7850552  33.4028101  48.2364511  34.2968535  72.0375586  49.3946505
  34.1720629  71.2114763  49.8618174  35.2372003  72.2063923  49.4536304
  42.7333069  71.1374235  57.4758244  42.0616865  70.4701757  57.3346329
  43.4703398  70.8535862  56.9350386  58.5093260  42.9354334  61.9345665
  59.1112566  43.5221767  62.3924351  57.6455593  43.1616879  62.2794628
  72.1017265  38.8396835  58.0013895  72.1587086  38.9877963  58.9453459
  72.5910282  38.0299377  57.8560352  74.9810791  33.5593247  46.0822821
  74.2199326  33.8818884  45.5997467  75.4839706  34.3467116  46.2904882
   7.0418179   4.1303164  62.9695654   6.5427518   3.9765447  62.1673679
   6.9609791   3.3136114  63.4622002  11.4615357  45.1878643  62.0901346
  10.6455016  45.6218243  62.3391247  12.1500051  45.7539320  62.4391460
  66.3418245  47.3866415  59.4297600  65.9371901  46.5532827  59.6706390
  67.2689819  47.2717953  59.6381235  17.8026462  76.5823936  10.8071971
  18.7066126  76.3021040  10.6639743  17.8393161  77.1113968  11.6040933
  37.3314261  63.1383944  11.5655792  37.6599979  62.2444534  11.4700079
  37.9977846  63.6843872  11.1483335  63.2943249  34.9092841  61.0344791
  63.1330395  34.9217796  61.9779110  63.8403177  34.1355324  60.8950615
  60.1480007  40.9017754  44.0158796  60.4829311  41.7843103  44.1745853
  59.3209553  41.0389471  43.5539103  43.4628487  32.3979521  66.7387104
  43.2058716  32.5635600  67.6457739  44.4138479  32.5066566  66.7355347
  50.4558372  40.6600904   1.3322537  50.8102846  40.1714706   0.5893885
  49.9541235  41.3712168   0.9337400  32.4843049  63.6443615  13.7344086
  32.3618746  64.5928621  13.6945224  32.7246094  63.3961344  12.8417349
  41.1578512  60.0983143   2.2459313  41.1770821  61.0377169   2.0632175
  42.0077896  59.7780991   1.9437739  80.6076908  42.6059675  54.4745159
  80.5096626  43.0389166  55.3225565  80.0268364  43.0917835  53.8890076
  56.0145092  33.7780595  43.3337641  55.7017231  33.7222052  42.4308395
  56.7410231  33.1561685  43.3744669  71.1339664  48.8354683  61.8105364
  71.5140533  48.7210464  62.6815557  71.7175674  48.3485270  61.2286997
  28.1836390  66.0635757  17.1358085  28.3243585  65.1179457  17.0887446
  28.3524132  66.3753843  16.2466943  35.7412100   2.0601344   3.9383197
  35.3786993   1.7994994   3.0916280  36.0334182   2.9620385   3.8063523
  35.6308246  17.1826935  10.5580902  35.2942300  16.3838053  10.9639382
  36.5132928  17.2796679  10.9159708  37.8172527  81.3994819   7.6846272
  37.8220735  81.2310141   8.6268729  37.9313074  80.5365386   7.2864413
  39.9532175   2.7151540   4.9348298  40.7764530   2.3457016   4.6154279
  40.1105738   2.8830761   5.8639544  83.5815525   1.8884017  48.3272171
  82.6500225   1.8577398  48.5452604  84.0252304   1.9147114  49.1749716
  83.5582256  25.8595324  61.3069630  83.2520485  26.7530537  61.4622307
  82.8145981  25.4197598  60.8948278  66.6940594  66.5001488   0.0346917
  65.8286238  66.9029951  -0.0357718  67.0463848  66.8323660   0.8603604
  59.5819807  19.7856569  20.5193257  60.0756884  20.6030178  20.4529405
  59.6730614  19.3801224  19.6570742   6.3296568  12.4498987  68.3748102
   6.9167972  13.1814611  68.1842470   5.4606146  12.8476858  68.4273767
  84.7087765  66.5883732   3.6693284  84.3293858  66.2050867   4.4601402
  84.0104485  67.1352434   3.3094531  54.7042608  34.1961718  63.6650085
  54.1831684  33.7864852  62.9744625  54.1222143  34.8535419  64.0462208
  41.7540359   7.3712277  26.7045164  42.5359106   7.4281710  26.1552787
  41.6999578   8.2252133  27.1334863   1.3686569  46.6036224  37.0523572
   1.3415645  46.1066771  37.8700042   2.1834248  46.3287020  36.6318774
   1.3541347  72.9642916   6.8831748   0.9647211  72.2904682   7.4404430
   1.2839589  72.6114845   5.9961373  70.1283789  62.8205490  65.9878635
  69.2922544  63.1154299  66.3486576  69.8959398  62.3916245  65.1643181
  72.8256989  25.2549529  62.9143953  72.1300697  24.8300004  63.4161377
  73.1050920  25.9867072  63.4645796  77.6606989  24.4025207  61.8641806
  77.7345991  23.4678555  61.6713858  76.7237091  24.5871091  61.7992830
  16.9394171  48.7655067  17.3338747  16.3862443  49.3553066  16.8216562
  17.4436414  48.2816410  16.6797626  77.7483511  28.7587070  52.8717947
  78.4729862  29.3837738  52.8510809  77.7269697  28.3874846  51.9897699
   2.3892583  29.9417543  69.5698595   2.0355281  29.4373703  68.8372612
   1.6743171  30.5238628  69.8272324  72.5902319  19.3186760  41.5756226
  72.4478531  19.7373438  42.4245501  72.0793915  18.5103238  41.6185427
  64.8114300  20.8331203  49.1245937  65.1743650  21.3964939  49.8080587
  64.9670935  21.3128591  48.3110523  54.8414993  31.7852592  57.4304914
  54.3739462  32.2563314  58.1202126  55.7249784  31.6654348  57.7788353
  26.6165829  25.1593065  63.7011003  27.3640633  24.5639062  63.6462975
  26.9052386  25.9488750  63.2433987  45.6260157   7.8500259   1.2278250
  46.1274672   8.5160768   0.7575530  44.8507166   7.7063513   0.6851442
  20.6281161  48.7460995   6.4889568  20.3820705  49.5543242   6.9389153
  20.1658273  48.7877560   5.6518281  56.7711067  36.6129899  46.4907360
  57.2157860  37.4589014  46.5448427  56.2981558  36.6437793  45.6591082
  68.6859846  56.5735245  64.0150309  69.1613817  56.2723112  63.2407570
  67.7627087  56.4915562  63.7761354  62.9453564  32.3869562  59.0570593
  63.7983322  32.7587724  59.2815971  62.7872086  31.7260671  59.7311878
  74.9922800  38.5508704  68.9549446  75.4748201  37.7341843  68.8268423
  75.6719160  39.2170405  69.0576553  52.9790592  35.6437039  65.3845024
  52.7905321  35.3323722  66.2698078  53.5648680  36.3897872  65.5126619
  24.8055243  35.8230948  12.3135114  25.7046556  36.1478782  12.3615670
  24.8746729  34.9964428  11.8359160  76.5691233  31.7733693  61.9339657
  75.7357073  32.1953678  61.7252350  76.3876343  30.8362603  61.8623829
   4.3640393  59.8580217  68.9301348   5.1163554  59.5314026  68.4366083
   3.8671684  59.0720797  69.1574001  69.7160244  14.6664727  54.9450827
  69.3376684  14.2945075  55.7417774  70.0439644  15.5246735  55.2137423
   5.2379972  22.0874810  65.9123945   6.0158134  22.5600672  66.2088680
   4.5330232  22.4106836  66.4734507  48.2179022  79.6441603  63.5085440
  48.5690975  78.8087893  63.8168478  48.6147738  80.2978992  64.0841818
  73.9415884  51.2952566  62.9156399  74.7205734  50.7918930  63.1523657
  73.3115435  51.1021948  63.6099052  81.9830322  45.7208395  58.0089474
  82.5916195  45.8681154  58.7329340  82.5445461  45.6259727  57.2395706
  77.6395082  33.5874128  68.5247087  77.6959038  33.2083964  67.6475573
  78.4986830  33.9835119  68.6701632  68.3620501  17.2398460  59.1721678
  67.7476931  17.9090059  59.4738722  67.8149891  16.4743745  58.9960766
  13.2334995  20.6094265   0.0596390  13.9241588  19.9711680   0.2381028
  13.4292030  21.3432860   0.6422041  40.2308512   7.9078382  24.3065953
  40.2549648   7.2509897  23.6107492  40.7765007   7.5403261  25.0018907
  36.0331535   6.0988319   4.5278311  36.6489697   6.0973501   5.2606338
  36.4058542   5.4793078   3.9005220  58.1868172  45.9572840  54.0731049
  57.9067993  45.6985950  54.9511147  58.5543156  45.1588917  53.6939621
  53.3754396  32.3708701  62.2625446  53.2944679  31.5736270  62.7860689
  52.7162218  32.2740960  61.5753031  69.6152878  28.3584237  46.0679531
  68.9763880  28.0662060  46.7180681  70.2776337  28.8262820  46.5765238
  14.7529352  70.1272154  15.9271133  14.6082783  70.8391380  15.3038406
  14.1176760  69.4565535  15.6763315  68.4584379  36.4475250  56.6983652
  69.3643522  36.1738276  56.8420362  68.2695580  36.1868119  55.7969332
   7.7498657  42.9579592  37.1049452   7.4220961  43.5566711  36.4338684
   6.9868535  42.4363565  37.3538923   3.9148936  12.4089515  54.2047882
   4.8552394  12.2472191  54.1284704   3.5582370  12.1543908  53.3537769
  74.6190643  42.5233793  66.2523746  74.1848326  41.7414236  66.5932894
  75.0203800  42.2361374  65.4322100   8.2939708  44.1412401  67.1817827
   7.5248957  44.6840286  67.0081711   8.9107859  44.7313499  67.6148462
   4.5320365  13.4903753  37.3171520   4.9131137  12.8347445  36.7330623
   3.7503797  13.7958515  36.8567944  71.0670662   8.0224407  55.9436369
  70.9014559   7.1457076  56.2902594  70.2083302   8.4452921  55.9414816
  11.7536056   4.1597626  60.1117754  11.2134993   3.8226998  60.8265495
  11.2232792   4.0244403  59.3264866  12.5895965  41.3454342   3.6652616
  13.0198693  40.8880186   4.3876672  12.3094475  40.6476498   3.0729395
  59.2006874  19.1232777  34.9978447  58.6163044  19.5273471  34.3563986
  58.6220455  18.6011028  35.5534863  17.5086081  26.2007642  44.3642473
  16.9673777  25.4441524  44.5897245  16.9542027  26.9573045  44.5553303
  73.5059643  23.7507939  37.1563435  73.4710073  22.8106999  36.9796133
  74.2630959  23.8582850  37.7320409  27.3953509  10.7612467  66.9391298
  26.8443084  10.6750095  66.1612177  26.7855120  10.9904170  67.6404238
   0.9365612  25.1169991  45.0259542   1.8263939  25.2492380  45.3529739
   0.9681163  25.4172635  44.1176128   5.9612262  67.1886587  26.2431407
   6.7993790  67.4878168  26.5956116   5.5913633  66.6418743  26.9362950
  75.0209713  27.3584604  58.8393116  74.4816685  28.0174923  58.4022093
  75.4881191  26.9208431  58.1276274  14.4698942  61.1475420   5.0373942
  15.2724612  61.2610626   5.5465418  13.9341009  60.5543280   5.5639440
  83.5856342  36.5487003  60.1915216  84.5289421  36.5828967  60.0327110
  83.3430195  37.4533725  60.3888607   3.8359600   9.0287071  44.8948956
   3.3477706   9.7929490  44.5885658   4.4495475   8.8364601  44.1858244
  85.5716610  52.2901249  39.2824674  85.9033585  52.1716022  40.1725006
  84.6597004  52.0026970  39.3264747  76.1306906  37.7150702  61.0349321
  76.7363977  38.2292080  60.5010605  76.5424490  37.6806378  61.8983555
   7.4124026  48.8840151  10.3103328   6.8796277  48.8170910  11.1027360
   6.9342840  49.4964552   9.7512704   8.4929836  60.9498787  11.3562834
   8.8760370  60.4778624  10.6168878   7.9034364  61.5876007  10.9538186
  57.4344540  76.6076279   2.3293565  58.2211971  76.6852999   1.7896953
  57.0551920  75.7648945   2.0799834  53.3497047  20.0340724  63.6792898
  53.3544636  20.7674217  63.0641413  52.4544621  20.0107670  64.0172768
  76.9925213  25.1379991  35.5704498  77.7854729  24.7779584  35.1731730
  76.6293573  24.4132638  36.0794711  75.6590891  40.6120491  49.6015310
  75.0845242  40.9209442  50.3020191  75.0761271  40.4815435  48.8536263
  73.3207130  64.1957045  65.3747082  74.0248680  63.8269138  65.9079885
  72.5184250  63.9566040  65.8388138  84.4983482  65.2977180  68.5756159
  83.8715458  64.9986458  67.9168987  84.3702793  66.2454891  68.6152077
   0.9823787  60.4707098  60.7091188   1.9144712  60.6665468  60.6138086
   0.9000324  59.5577812  60.4334211  76.0389853  51.8110800  28.4078813
  75.4322815  52.3016071  28.9624286  76.0048056  52.2577381  27.5619745
  11.4575720  79.8014641   5.2355820  11.3857758  79.2160797   4.4816571
  10.5849743  80.1845455   5.3253263   0.2130971  39.1151667  66.9229460
  -0.0348593  40.0351524  67.0144796   1.1275610  39.1404605  66.6412592
  72.8038311  59.0006018  49.6548128  73.0484009  59.7396660  49.0978527
  73.3305120  58.2706833  49.3291378  60.1438236  63.8079643  67.9432106
  60.3353214  63.8791704  68.8783550  59.2062187  63.9886522  67.8762913
  19.4829917  79.3290281  35.8784604  19.8097050  79.9515867  35.2289128
  19.9770212  78.5265112  35.7107329  68.0789471  41.0548449  56.7288446
  68.5612822  40.4982042  57.3401880  67.8299141  41.8201065  57.2471046
  43.4418917  65.8721018  24.2189980  43.0640554  65.5324984  23.4077382
  43.0501461  65.3360033  24.9084663  80.3122711  57.3016024  66.6601133
  80.8323479  57.2127676  65.8614492  80.6206131  58.1160688  67.0573568
  42.4240160  76.7287731   3.2962242  41.9542789  77.3432207   2.7322787
  41.7476892  76.1310244   3.6148286  25.3111458  70.2347040  16.5058780
  24.4191408  69.8944807  16.5751994  25.5367017  70.1288843  15.5816710
  58.9215517  15.1728284   4.1617191  59.0610552  14.4519520   4.7758090
  58.8038969  14.7454083   3.3133668   8.7943083  50.9125805  68.5641766
   8.5071653  50.2866173  67.8993797   9.1011208  50.3681040  69.2891884
  49.4033337  11.8275082   9.8723638  49.4107151  11.3905644   9.0207434
  49.1533470  11.1415231  10.4913640  40.5115795  16.0529566  23.5529971
  39.9584770  15.7693708  22.8250599  41.3975668  15.8005846  23.2930684
  19.6640682   3.7114501  18.4738147  19.2090571   4.1303161  17.7432334
  18.9643741   3.4414315  19.0685844  20.3047132  64.4309616  11.0444999
  19.6300960  64.6307516  10.3954947  20.9715629  65.1047468  10.9120047
  34.4370842  13.5169137  25.7176042  34.8899412  12.7973104  25.2779198
  33.6466193  13.6566448  25.1961899   0.4335318  70.3596210   1.3896325
   0.6834608  71.1397791   0.8945332   1.2649699  69.9788189   1.6723566
  13.0305278  41.7406130  56.6389132  13.8031685  41.8257189  56.0803270
  13.3677900  41.8331051  57.5299406  69.4705486  36.2123251  59.5020580
  68.7428665  35.6191373  59.3154049  69.0576220  36.9823956  59.8928452
  45.7999516  24.8197794  15.7606721  45.3325415  24.0022349  15.5892622
  46.6127300  24.5463562  16.1859465  55.8601761  38.6800456  60.8300304
  55.6261110  38.5458183  59.9116468  56.6061592  39.2791700  60.8019686
  50.8165598   1.4817555   3.3546653  49.9711943   1.1927152   3.0110902
  51.3577080   1.6168822   2.5767657  71.3195705  26.3162065  51.0762978
  71.8280029  26.1671591  50.2791071  70.7612228  25.5424643  51.1524439
  48.2567692   7.9776675  13.1290722  47.7709198   8.5585785  13.7144995
  47.8832293   7.1107519  13.2876861  77.5159454  58.6409140  49.7585106
  76.7857599  58.2972050  50.2732134  77.3000908  59.5635557  49.6229839
  23.6924767  72.4699259   7.8281176  24.6148181  72.2726536   7.6650214
  23.2181573  71.7335558   7.4420905  13.7615263  60.6856537  49.4047832
  14.1425860  61.5608740  49.4756174  14.3494332  60.1266289  49.9128056
  79.5878935  36.0924149  50.9394026  79.7443485  35.1589322  51.0821009
  80.4554653  36.4565229  50.7634258  26.1499214  72.5254726  62.4918032
  25.4798007  73.1938601  62.3488712  25.6940937  71.6955090  62.3517561
  81.8681431  23.4960008  62.0869017  82.2543526  23.5820317  62.9584932
  82.5171280  23.0029345  61.5849638  83.5013199  62.3096848  57.9615164
  82.8120804  61.9582415  58.5251331  84.2908001  62.2804689  58.5019827
  69.5379305  25.9096932   6.9623423  69.5145464  24.9986696   7.2551185
  69.1204596  26.3997197   7.6707393  59.4783688  28.1144691  60.0388956
  58.8871813  28.8327670  60.2642441  60.1248455  28.1059289  60.7447481
  35.3217959  17.1757686   5.6440085  36.1535811  17.6483393   5.6117344
  34.9298573  17.3216927   4.7830078  62.0584345   1.3655943  19.2050731
  62.4455118   2.1782851  19.5305538  62.5096130   0.6744554  19.6898401
  57.9561710  16.2846041  59.5825577  57.5617886  17.1271825  59.8078489
  57.9468107  15.7891560  60.4015064   7.9772657  31.1825800  32.1985388
   7.8007185  31.7401910  32.9562545   7.1159393  31.0230994  31.8126440
   3.7386113   5.5606854  57.0894575   4.2421660   4.7467163  57.1003437
   3.3151302   5.5918342  57.9473162  71.2662840   7.3647195  43.7817621
  71.7798424   8.0464900  44.2149830  70.5371332   7.1981245  44.3791008
  20.6591439  77.8631258  21.1668491  19.7167492  77.6980448  21.1372614
  21.0547924  77.0491028  20.8553028  76.6779280  14.2176807  68.8753319
  76.6081285  13.5154295  68.2286453  76.5258694  15.0196528  68.3753777
  62.1721649   9.9125391  66.3783121  62.9905701  10.1480234  65.9412861
  62.0755148  10.5639911  67.0729351   5.0780350  24.0436244  68.9863586
   5.9261489  23.9707232  68.5486126   4.4855350  24.3679452  68.3081341
  74.2761135   6.3092482  64.1407347  74.5726204   7.1584636  63.8133955
  73.3214712   6.3509822  64.0846586  84.0220451  32.8826737  69.1496944
  83.1900311  32.6876092  68.7185049  84.1089153  33.8336277  69.0835762
  71.4284086  27.4057531  44.1091442  72.1837044  27.9807758  43.9862108
  70.9095049  27.8341722  44.7899008  22.1267271  68.5493088   9.0657520
  22.3366857  68.1150866   9.8925537  22.2684455  69.4795847   9.2410415
  68.6813831   8.3827889  37.5838232  67.7534246   8.6064565  37.5124240
  68.7088394   7.4334937  37.4641681   6.9289577  26.4918494  17.4385297
   6.8117756  25.5668426  17.2220528   7.5852674  26.8025112  16.8148470
   4.2142332  37.5091100   3.2734492   3.5175660  37.5855565   2.6214963
   3.9282227  36.7984700   3.8474000  75.9806108   8.8462359  56.7661619
  75.1343060   9.0050519  57.1842337  75.8839560   9.2073113  55.8849621
  75.1151371  25.7759857  61.3162374  74.2446041  25.9631371  61.6674900
  75.1878357  26.3375616  60.5444956  42.2530699  79.3011618  51.1653519
  42.9184484  78.6297226  51.0147810  41.9081926  79.4962454  50.2940130
  80.6098080  13.4496939  58.2622147  80.9344769  14.2543030  58.6664772
  80.2788544  13.7274516  57.4080801  36.7301583  59.3751097   6.4035976
  35.9688497  58.8235712   6.2234765  37.3723698  59.1207170   5.7409668
  71.9228649  32.2509694  66.3250637  71.3374281  31.9294477  67.0107174
  72.7458143  31.7857337  66.4752007  61.5230513  71.7020941  65.8921099
  61.2508488  72.6095629  65.7555819  60.7375145  71.2628651  66.2180614
  78.5628319  18.6513698  57.6762581  77.8504276  19.2654288  57.4983835
  78.1609440  17.7868819  57.5903749  70.2585506   8.8555658  39.9635053
  69.6616936   8.9089066  40.7099295  69.7030497   9.0161175  39.2006969
  78.6749411  25.9391832  59.5542431  77.8116989  25.5275822  59.5138311
  78.7840557  26.3514638  58.6973000   4.1600800  11.3350749  39.0871954
   4.2333966  12.1190584  38.5429287   3.4294790  10.8471644  38.7071991
  41.8720579  78.0334377  32.8325200  42.7153492  77.5971413  32.7111292
  41.5203047  78.1253862  31.9470572  19.5652688  71.4280272  22.2949457
  19.9006426  71.5775204  23.1789184  18.8425016  72.0490837  22.2047782
  80.9970379   5.6933254  41.8459797  80.2739906   6.2287551  42.1726942
  81.2344265   5.1342762  42.5858068  64.2979813  68.2184219  53.6160278
  64.0606117  68.2334042  54.5432091  63.5053968  67.9188967  53.1706858
  42.5470877  79.7144604  55.5808115  43.3912802  80.1439476  55.7190418
  42.7321625  79.0205669  54.9479723  11.6437817   1.8263987  52.3061562
  12.2749329   2.3276271  52.8225374  11.7660975   0.9209586  52.5915480
  32.2914624  49.5515442  53.0488157  32.2791696  50.3861523  53.5173368
  31.6160393  49.6440887  52.3768997  17.7258444   5.4426950  42.3740482
  18.2101738   5.2380490  41.5741873  18.1711543   6.2097102  42.7340746
   0.2026726  18.8363826  48.8819933  -0.1700088  19.7003317  49.0578747
   1.1066636  18.8981557  49.1905642  67.4685621  22.0838690  65.9854889
  66.5610886  22.3879671  65.9695482  67.7805185  22.2139430  65.0899506
  12.6210225  61.9074106   8.5182935  12.1199751  61.6945171   7.7309823
  12.1649468  62.6592302   8.8964391  83.4009075  73.9026451  56.3271379
  83.9531898  73.3037996  55.8245373  83.3124542  73.4849119  57.1838188
   9.7401696  40.2727413  57.3863888   9.5237935  40.1922989  58.3153391
  10.4556155  39.6511126  57.2524118  29.9725938   2.8291607  30.2523446
  30.5131578   2.4556425  30.9484124  29.8058701   2.0965272  29.6593165
   5.2850997  40.7695293  47.6217270   5.2078778  40.0492144  46.9960976
   6.0709912  40.5638409  48.1279898  32.3348546  39.6244955   4.6390408
  32.2241330  39.0568256   3.8763332  31.6419530  40.2792454   4.5528960
  57.3729897  12.7945268  59.9146891  57.8478336  13.3282804  60.5517578
  57.3165655  11.9298375  60.3213358  59.4962597  22.6751852  56.5421009
  59.6063948  22.1691704  57.3471165  59.6666145  22.0477271  55.8395958
  68.9802599  38.4036875  61.0670328  69.5094442  38.9537787  61.6446114
  68.4244776  37.8985143  61.6604471  48.0614471  75.7401085  47.3270512
  48.4354258  74.9550772  46.9269276  47.9813290  75.5208397  48.2553482
  50.1748180  41.3468122  58.1959248  51.0256767  41.0725260  58.5380459
  50.3822327  41.8237352  57.3923349   1.2433691  19.9475682  55.1661873
   1.4023645  19.8429596  54.2281008   2.1104836  19.8770773  55.5654049
   2.2948267  28.9703083  60.5084085   1.4214741  28.7925100  60.8575106
   2.5570071  28.1503081  60.0899649  80.1352882  38.7635231  52.7634192
  80.6599236  38.1787539  52.2165775  80.4913807  39.6353340  52.5920153
   8.0064988   5.8406055  38.5153270   8.0017084   4.9109095  38.7430859
   8.3546358   6.2760293  39.2934251  20.7083011  41.7411566  59.8293257
  20.7239342  41.3104248  60.6839943  21.2051272  41.1562634  59.2572212
  77.2350407  40.6119394  44.8520374  76.3231516  40.6122351  44.5610189
  77.7444887  40.5583000  44.0434504  64.6336555  41.5430880   2.1476601
  64.3321943  41.4976358   1.2403079  65.2315617  42.2903919   2.1642439
  67.9715633  32.0371532  56.3225746  67.8354168  32.0037580  57.2694540
  67.3180056  32.6620197  56.0085201   0.6731363  58.4266853  49.5952606
   1.4298782  58.4664822  49.0104628   0.6182649  59.3032217  49.9759340
  84.0624714  77.0119762   6.8707287  84.6443462  76.3300514   6.5351218
  83.7353992  77.4545336   6.0875320  76.3882351  25.5290747  56.9934082
  76.8235731  25.0128245  57.6717901  76.7949581  25.2418852  56.1758947
   0.2843031  35.0991559  47.6381588  -0.2052942  35.8055735  48.0594683
   0.3962740  35.3916693  46.7336512  34.4279456  44.1144466  12.0176017
  34.8268580  44.9838448  11.9821990  34.8484612  43.6288977  11.3079262
  82.5449085   8.3106691  45.7008362  83.1415844   7.9049891  45.0718403
  82.9064846   8.0805832  46.5567255  77.1928501  52.3348856  54.3206739
  77.7393579  52.4377060  55.0997686  76.5377378  53.0288792  54.3943548
  69.8005486  26.4343643  59.1567087  69.3239689  27.1373844  58.7152767
  70.1356983  25.8887172  58.4452486  10.8083546  26.1838388  55.7619476
  10.6487834  26.1288643  54.8197412  11.6731489  26.5875602  55.8352518
   3.6821863  21.7534328  41.3171005   4.5906764  21.4639258  41.2330532
   3.3379287  21.2507153  42.0553350  47.7970886  80.1427555  60.6107903
  48.2411051  80.0562382  61.4543533  48.1037235  80.9803772  60.2635193
  37.8204727  74.7474813  16.1621952  37.6410747  74.6763945  15.2246475
  37.1942329  74.1506004  16.5718138   3.9671278  28.4000945  29.7581267
   3.3931074  29.0215182  29.3102813   4.4751793  27.9942417  29.0557027
  83.8232899  19.9507403  56.8824291  84.0605354  19.0321064  56.7557192
  84.6579742  20.4187965  56.8612766  27.5744557  24.0284085  20.0663257
  28.4769082  24.1350436  20.3670597  27.1636462  24.8761225  20.2361798
  52.9288292  11.3288367  41.7661667  52.3516321  11.1697006  41.0193348
  52.4184227  11.8925393  42.3475027   2.0809038  14.6417129  47.9433632
   2.2905962  14.9978197  47.0799732   2.7728027  14.9752986  48.5145283
  84.8157120   5.0763077  66.5066910  84.8967457   5.7556266  65.8372164
  85.3308105   5.4039502  67.2439480  73.1200886  19.0558445  55.4786587
  73.3451319  18.4043133  54.8145103  73.7796068  18.9385426  56.1624002
  62.5827599  25.3352094  67.9196501  62.5391245  25.7498956  67.0580482
  63.4894657  25.4600406  68.1998968  60.7422590  19.3371987  40.3018856
  61.4550972  18.8096380  39.9416447  60.0001335  18.7347353  40.3520823
   5.6543094  11.6157377  18.2132375   6.0524589  10.7497454  18.3013630
   6.1512154  12.1701550  18.8148499   1.4540827   0.3607021  15.5514979
   0.6693269   0.1193554  15.0594187   1.1398447   0.5165077  16.4421225
  73.0469418  16.1294472  17.1579897  72.3918819  16.0710764  17.8534865
  73.0525827  17.0542908  16.9112813  35.9422112  65.2035189  69.9213171
  35.7472539  64.3322277  69.5762539  36.8966341  65.2255917  69.9907541
  24.1951823  77.4779367  60.4102039  24.4359875  78.2504559  60.9215355
  25.0083828  76.9790173  60.3326464  25.6476402  11.8896687  37.4719954
  26.4282751  11.3762677  37.6799846  25.1343203  11.8830037  38.2798886
  70.0483894  59.0175962  26.8925357  69.9477100  58.0668879  26.9399500
  69.3542433  59.3026161  26.2982702  49.3548918  73.3204269   3.8173214
  50.2181911  73.6819363   4.0179616  49.1397667  73.6780643   2.9558998
  25.5615830  76.6238689  57.7847052  25.0450468  75.8562613  58.0300713
  26.4696503  76.3234758  57.8222322  82.7137470  40.2235413   9.2626822
  82.0477390  39.8241186   9.8222637  82.4919701  39.9295330   8.3791637
   4.0805897   5.6587327  38.9130998   3.2238215   5.6766850  38.4866524
   3.8828921   5.6890273  39.8491716   3.6878157   7.0356035  17.6050103
   4.1560027   7.1354270  16.7761147   3.8055062   6.1144650  17.8371394
  73.3614874   4.3236440  16.7543459  72.8876829   5.1234812  16.9823909
  72.8847265   3.6262614  17.2044468  34.8810434  69.7382879  63.7686586
  35.6761575  69.2389536  63.9549112  34.6980596  70.2092886  64.5816183
  17.8862631  14.2802060  21.4011884  17.7922952  13.3801126  21.7130113
  17.0401394  14.4854665  21.0034776  19.2857909  10.8462870   9.0614510
  19.8037601  11.5907812   9.3675035  19.5259857  10.1297402   9.6489030
  21.2564254   0.1060379  31.1555362  21.6272545   0.8578709  31.6175604
  21.9822764  -0.2363135  30.6338406   7.2357821  14.2859554   6.2317669
   6.8448949  14.8677409   5.5798739   6.9370484  14.6330249   7.0723218
  84.9009418   9.4025493  29.3710732  85.4624748   9.1235203  28.6478496
  84.5694733  10.2587533  29.1003752  63.0277586  12.9506767  42.9687643
  63.7817335  12.5617862  43.4120655  62.9626989  12.4720573  42.1423721
  31.2704730   1.1001240  32.1139503  31.1630154   0.7544074  33.0000472
  31.6488886   0.3742063  31.6178894  40.7546854  74.9000359  24.4107842
  39.8383808  74.6507215  24.2905498  41.0460806  74.3856144  25.1635718
   9.7408402  21.7599320  36.7582440  10.0827706  21.6588831  37.6465607
   9.1974413  20.9839606  36.6210556  84.7805786  10.5391383  21.7470765
  84.6412468   9.5921344  21.7482662  83.9164925  10.9081340  21.5642524
  21.6911077  37.5505018  69.3185377  21.0792184  37.4406934  70.0463915
  22.4192739  38.0479574  69.6907616  25.3176665   1.3502236  44.0294981
  25.0352240   2.1926692  43.6734867  26.0675955   1.1012201  43.4892797
  56.4445829  29.3082690  22.2310495  55.5986023  29.5421600  22.6129484
  56.5381670  29.8936677  21.4795280  59.5219660  80.2001762  30.5509019
  59.0527534  79.5036697  30.0916052  59.7807360  80.8104038  29.8603272
  62.6669216  75.6392145  37.5173640  63.5004616  75.9272528  37.8894925
  62.1093273  75.4744959  38.2777500  51.0266924  68.7650824   3.1428415
  50.5146217  68.8795280   2.3422697  51.4938593  69.5937872   3.2488614
  45.9162712  79.2385578   2.3179418  46.4883089  79.7318888   2.9058444
  45.3255463  79.8962402   1.9508807  80.1127815   9.6283829  39.2044187
  80.3554916   9.6701729  38.2794428  79.9243450  10.5358005  39.4438267
  55.6379604  66.6844511   9.8827618  55.1176691  66.1692429   9.2662466
  55.1260853  66.6785049  10.6915760  32.5324965  78.5215759   6.2565964
  31.7456508  78.2343626   5.7933325  32.8470588  77.7361012   6.7041653
  82.4687862  76.0734653   8.7628478  83.1513214  75.7764626   9.3646550
  82.9446793  76.5197420   8.0624187  15.1249337  23.0171371  29.7186828
  15.3470767  22.1624660  30.0880384  14.2279708  22.9147625  29.4005513
  71.8647099  66.4975691  22.9958963  71.8301582  67.1003199  22.2531104
  71.1549377  66.7845535  23.5704398  61.1060286  71.0405302  20.2645588
  60.7492685  70.1617908  20.1350665  61.7499161  70.9367704  20.9651804
  22.7646279  32.5513458  64.2616940  21.9966769  32.0034814  64.4239521
  22.5911784  33.3570933  64.7484303  48.3969259  48.2155037  69.2030048
  48.0182362  49.0221977  69.5523882  48.8871765  48.4961271  68.4302616
   5.5450910  11.3327217  22.9197407   5.7493061  10.3983116  22.9572558
   4.6958661  11.4099360  23.3545804  26.2579012  20.9620738  24.2217350
  26.2458706  20.2458167  23.5868621  26.8658018  21.6013074  23.8501525
  54.5316458  69.2201948   7.6286638  53.8999414  68.5694695   7.9348350
  54.5330000  69.1231441   6.6763973   1.5256549  67.4525642  16.0557330
   0.9012739  67.9467916  16.5868819   2.1472554  67.0935011  16.6889143
  28.0593586   3.1196246  16.2945724  28.9599824   3.0547005  15.9769380
  27.8948998   2.2790241  16.7218614  76.9973040  80.7834053  41.1048412
  77.8660870  80.5365562  40.7878017  76.9683075  81.7352009  41.0074234
  47.3360682  75.8086395  23.2817745  47.7517843  74.9464321  23.2845521
  46.6245174  75.7294130  22.6464367   3.3344197  10.2968693  20.5658031
   4.0789527   9.8260713  20.1913023   3.2063544  11.0451102  19.9827361
  17.1428430  15.9436858  16.0093629  16.6919589  15.4803073  16.7152071
  16.4416802  16.3699090  15.5164766  81.1368847  36.8163323  36.3581181
  81.1389828  36.0100245  35.8422709  80.2417374  36.8860698  36.6899037
  17.5641227  11.8655205  32.3535109  17.9391158  11.5387058  31.5357065
  18.1699598  12.5497222  32.6382232  12.8227460  29.1469312  39.5421338
  12.9723108  29.9035430  40.1090574  13.5050452  29.2098618  38.8737488
  58.3009434  18.6376321   6.7968291  59.1945553  18.4480548   6.5109003
  57.8011656  18.7166560   5.9842962  21.0114288   2.5163227  26.4315939
  21.0032415   2.2124003  27.3392248  21.4673018   3.3573407  26.4647293
   1.2912977  72.6112461  17.2935641   1.3624485  73.1175280  16.4843369
   2.1936080  72.3745108  17.5080967  75.0385523   2.8669471  56.7070675
  75.6453371   2.4887013  56.0706902  74.3222046   2.2342983  56.7603207
  83.6292744  11.4929283  15.2423608  83.5230923  12.2238135  15.8512664
  84.1788864  10.8666420  15.7134390  13.6683297  16.0559595  30.6057692
  12.8469193  16.4089441  30.2638340  14.3282342  16.3217318  29.9653602
   7.7226853  21.4198899  14.7237885   7.9304117  20.4883218  14.7963572
   7.4791223  21.5401793  13.8059437   1.4280154   2.4620500   3.6579400
   1.0243753   3.3183813   3.5165083   2.0866175   2.3906511   2.9670152
  75.9740782   5.7874846  17.6137352  76.3908625   5.9843367  16.7748237
  75.0374699   5.8921146  17.4462509  34.2471647  10.4927731  28.6628008
  33.3631587  10.8106387  28.4791493  34.6381783  10.3600276  27.7992487
  72.6580715  31.7577243  32.5450063  71.9341612  32.3010397  32.8564501
  73.1140900  31.4866424  33.3417439  73.5618782  23.6102343  13.0332208
  73.3574104  24.1367364  12.2604203  72.8770018  23.8338566  13.6634374
   6.1875379  16.4317143  46.4926291   6.3670141  15.5080140  46.6681194
   5.3398496  16.4307404  46.0480452   2.7112582   9.6437728  26.1439371
   2.4285573  10.3018749  25.5089450   3.6658788   9.7135043  26.1522484
   4.4287804  26.5141726  37.2800350   5.2647787  26.8457770  36.9523525
   4.0840682  25.9827232  36.5624213  80.9423828  19.0618014  15.4035938
  81.5533161  18.3427680  15.2423763  80.0915337  18.6350822  15.5045688
  82.6481628   3.3317721  34.6101832  83.5825157   3.1480196  34.5129013
  82.4794483   3.2258588  35.5464244  12.0117307  16.8074179  33.0034304
  12.6458085  16.9388175  32.2985101  11.2719071  17.3670912  32.7675104
  12.4281812  18.1442356  13.5912490  12.6825023  18.6177886  12.7992272
  12.6256406  18.7495089  14.3060124  49.2121410  61.4072990  13.0287790
  49.5379543  61.0350847  12.2093081  49.2884970  62.3538923  12.9089475
  16.5655196  16.9874179  22.2354889  16.9532883  16.7746353  23.0843663
  17.3157656  17.1389449  21.6606808  24.1644120  17.5013816   7.0413756
  23.4864640  16.8406284   7.1828771  23.8360190  18.2811463   7.4889898
  67.0519876  39.5411611  13.0041683  66.7653513  39.9887919  12.2081184
  66.2413549  39.3458152  13.4742129  23.2845783   4.4932094  10.9431911
  23.3290267   3.5983029  10.6064439  22.5199842   4.4947219  11.5190589
   5.1950675   3.9389679  44.2456865   5.3014874   3.0474129  43.9139700
   6.0713875   4.3204063  44.1927671  79.5762157  25.9706521  41.4690876
  79.6349239  25.5052686  40.6346989  79.3313074  25.2963066  42.1027374
  81.8662453  28.7565541   4.1544047  82.5275517  28.2084489   4.5768875
  81.1282063  28.7541819   4.7639230  19.3438184   0.3862964   4.5130247
  19.0123975  -0.5056081   4.6174178  20.2928138   0.3014633   4.6049231
  18.4970927   8.1713414  23.7121367  19.4428039   8.2181793  23.8523769
  18.3250630   8.8131261  23.0231142   6.4245868  22.3862171  30.7060432
   5.4983073  22.5344872  30.8964467   6.8899614  22.8849196  31.3775754
  72.7100515  22.1733952   3.7344706  72.4998331  21.9066978   4.6294069
  72.7225208  21.3554335   3.2374656   3.3903554  76.8650007  26.2973523
   3.9100844  77.5920010  26.6402531   3.3767065  77.0059204  25.3506804
  19.0431273  37.5196862  12.4084258  18.9247632  37.5675225  11.4597785
  19.9829614  37.3812890  12.5258541  79.0786457   8.0172396  25.5217242
  78.9112663   7.1724731  25.9395599  80.0328541   8.0905962  25.5035830
  39.2895555  58.1387186   1.1271508  39.6672487  58.7806320   1.7284226
  38.6148381  58.6236715   0.6519562  23.7257886  45.2939558  70.3515434
  24.2619228  46.0184288  70.0291634  24.1598487  44.5083094  70.0190067
  45.8163977  65.2746105  25.3695345  45.0949526  65.6666803  24.8775721
  45.4005575  64.8975420  26.1448574  47.4150038  60.4496956   0.6632610
  47.0433044  61.2752056   0.3524455  48.1041193  60.2443695   0.0314441
  65.7494450  65.8609056  19.4355631  66.2735844  66.6576958  19.5170367
  66.3013649  65.1722193  19.8061323  23.5331559  34.2235017  67.6251507
  23.1826520  34.5861530  66.8115997  22.8481221  34.3847513  68.2739639
  58.3988619  42.3279381  21.0433173  59.3323851  42.4746084  20.8908391
  58.1189823  43.0834723  21.5601039   3.1452659  66.0771370   0.6840166
   3.4574997  65.6801271   1.4971133   2.5559616  65.4227686   0.3088460
  14.9462306  78.7661695  16.3568854  15.2317119  79.5183039  15.8382046
  14.7269905  78.0972624  15.7082486  55.1566124  77.9949522   1.7235821
  55.9265232  77.4262190   1.7275062  55.1288462  78.3665562   2.6052701
  57.1484613  63.7716055  22.5614476  56.6713715  63.4476995  21.7974448
  56.5532160  63.6230993  23.2961988  11.9884074  38.4512186  59.6875763
  12.6544535  38.3428812  60.3664541  12.4861658  38.5252619  58.8733387
   8.7790799  39.3776035  65.1190138   9.0259385  40.2863741  65.2905607
   9.5833582  38.8793969  65.2644682  53.5738182  55.5232811   5.7459641
  53.0009413  56.2000275   6.1065960  53.8323259  55.8604288   4.8882124
  29.4094896  47.0109606  68.4710836  30.1041245  46.5697670  68.9600229
  29.2431307  47.8146172  68.9637232  71.2559891  69.5456266  11.9936812
  71.4368296  68.9615059  11.2572479  71.6229343  69.0937328  12.7535319
  72.0045328  58.8583612  22.6907206  72.4385023  59.6548462  22.9965234
  71.8783665  58.9995146  21.7524290  70.3884649  62.5797510   7.3905325
  70.1241779  62.8872585   8.2576114  70.5325985  61.6402054   7.5032645
  41.2364340  62.6762152   1.8514191  41.5265512  63.1299305   2.6427528
  41.6663885  63.1443071   1.1356950  61.9479799  79.8371172  37.1963739
  62.3789406  79.3543100  37.9016399  61.5634060  80.5997944  37.6284099
   6.8310374   2.7148691  30.8511305   7.1673161   2.3182793  31.6547871
   6.4198148   3.5295507  31.1399579  57.8101778  73.5611296   4.8542908
  57.5007772  73.1088305   5.6391013  57.1160507  74.1876411   4.6495879
  19.7655332  28.8302112  68.9923525  19.6234035  28.2590151  68.2375240
  20.7175279  28.8825727  69.0772009  16.1768377  33.4566712  67.0582914
  16.3915241  33.3087897  67.9793072  15.8428681  34.3533111  67.0311880
  79.5440054   7.7745110  18.6357296  80.3684998   8.1434304  18.9524937
  79.4205666   8.1698924  17.7727890  19.7920632  62.7589655  54.1051388
  19.4983351  63.6044502  54.4444132  19.3197429  62.6551962  53.2790804
  72.0118284  56.5484619  27.3381662  71.0825348  56.4780140  27.1198153
  72.4477768  56.6674900  26.4943552   1.2071630  71.9218254  11.3485086
   1.2907520  71.7816925  10.4053187   0.2980684  72.1955681  11.4703393
   2.4691062  18.9505303  59.9677229   2.0108746  18.8329089  60.7998419
   1.8899886  18.5534859  59.3171740  70.6959438  40.2413177   1.0814556
  70.1367140  39.4744062   0.9576020  71.4172506  40.1137924   0.4652728
   1.6396560  20.8405066   4.5087710   1.4078493  20.2488422   3.7929279
   0.7988574  21.1517596   4.8440495  66.5622520  58.5502911   7.9327869
  65.6348610  58.3741426   7.7741784  66.9072723  58.8057041   7.0772409
  36.2606263  17.3572338  50.5994701  35.3495646  17.4753618  50.8682585
  36.7009020  17.0285714  51.3832903  24.6791959  15.6431532  61.9828510
  24.6171832  16.2748051  62.6993704  25.2966356  16.0387266  61.3676071
  15.3891003   2.3397329  18.3510065  14.8781908   1.5307486  18.3783436
  14.8109674   3.0010933  18.7312651  31.5623927  12.0943570  54.7064257
  30.7057405  12.4989498  54.5697403  31.4184213  11.4601457  55.4087639
  84.6394062  66.1413670   0.9192011  85.1906586  66.8885756   0.6867369
  84.6445465  66.1285162   1.8763010  83.2480240  73.0833006  16.8723917
  82.4256134  72.7126980  17.1925843  83.0128384  73.5135841  16.0503364
  49.6618414  62.6892996   2.4859974  48.7532520  62.4005938   2.5717020
  49.9307346  62.9024315   3.3795875  22.9799342   0.9149341  60.3620052
  22.9966807   1.8061295  60.0131226  23.7973762   0.8347413  60.8535242
  53.4172297   1.8296729  11.1289287  53.4161615   1.9731152  12.0753193
  54.2047071   2.2774376  10.8197033  61.4842129  75.2072668  18.7902606
  61.1151266  74.9768639  17.9376638  61.1439753  76.0838032  18.9695740
  68.5374022  49.5435476   4.1319466  67.8970909  49.4263649   4.8337275
  68.2272339  50.3103876   3.6503044  12.8949213  18.0457985  65.7450676
  12.6474881  17.6418972  66.5768576  13.5076964  18.7396348  65.9886408
  18.8269567  34.4563222  67.2912598  19.4609928  33.7405729  67.3352194
  18.0148256  34.0395284  67.0032406   5.8829910   9.4620639  26.3556290
   6.3782758   8.7255424  26.7140436   5.5760819   9.1522920  25.5035257
  83.9866352   9.6653342   3.3877954  83.9955616  10.6124008   3.2491711
  84.8652172   9.4619489   3.7086889   1.0473750   4.2661378  32.8507352
   1.8200618   4.3201977  33.4131098   0.4620901   3.6604175  33.3054614
  81.0832882  28.3371472  37.2459722  81.4767838  27.5063109  37.5126266
  81.7926407  28.9748096  37.3262620  20.4771852  57.0504570  64.3893147
  20.7519674  57.5870848  63.6458397  19.5390224  57.2206068  64.4737530
  33.0069590  38.5138917  68.9767075  32.3621917  39.1947794  69.1687965
  33.5477519  38.4668732  69.7651005  77.9467964  75.6402349   3.0312195
  78.3469820  76.5067482   3.1035697  77.4740648  75.6634521   2.1992227
  68.5963774  63.8135767  16.6214263  68.1689405  62.9813433  16.4191520
  69.5064640  63.5778666  16.8014824  77.1573067  72.5371265  33.8457894
  77.4581814  73.2028294  33.2272863  77.7688742  71.8097591  33.7310934
  30.5114412  74.3282557  21.3444519  29.5643497  74.3200779  21.2059522
  30.6255388  74.7534275  22.1944165  84.5729733  46.6792345   5.8690119
  83.9048195  46.4821100   5.2125466  84.6113014  45.8939838   6.4150375
  62.6175594  63.5516214   7.3298037  63.0188990  64.1622400   7.9481119
  63.3277321  63.3124352   6.7342579  80.0613308  51.3410902  11.8986428
  80.7942963  50.7317734  11.9865954  79.3312645  50.9021378  12.3351645
  22.3822927  35.1321864  65.2940369  22.8766584  35.4915714  64.5573711
  21.4994192  35.4856229  65.1851892  10.5359089  61.4498949   6.5266120
  10.0180078  62.2154140   6.7755926  10.5718958  61.4856434   5.5707568
   1.5517677  39.5508599  17.7145982   2.1562859  40.1624632  18.1349957
   2.0985627  39.0537000  17.1062577  13.1991148  23.1764340  64.5696783
  13.2035410  23.0047941  63.6280060  12.2884774  23.0437398  64.8330498
  73.7322187  55.3499603  22.0307899  73.2555103  55.4008770  21.2023044
  73.0871344  55.0246572  22.6587009  82.0435715   3.6042684  12.4209368
  82.5012207   4.0218687  13.1505930  82.1869755   4.1929173  11.6798854
  71.7742968  69.8068857  29.7331095  71.1663914  69.1654205  30.1008224
  72.6394987  69.4182491  29.8620296  48.3193350  58.5510302  11.7777848
  48.9262581  57.8475332  12.0079315  47.6946735  58.1420517  11.1788094
  63.2588434  74.8954153  22.9698563  62.7188301  74.2430496  22.5237203
  63.3939219  75.5818224  22.3165345  13.9307415   5.9493715  17.5259709
  14.7283578   6.4118171  17.7832317  13.6930990   5.4345024  18.2971179
  75.9087420  54.6063948  20.7071495  76.4826965  53.9601994  21.1185360
  75.2250385  54.7678280  21.3573194  13.6896753  13.3149171   6.6809726
  13.6123240  14.1512215   7.1401495  14.3250310  12.8170645   7.1954602
  70.4276943  50.3142691  24.4274616  70.7717848  51.1625910  24.1478491
  69.5066547  50.4830551  24.6260333  82.6907921  35.1680160  18.4904563
  82.2376537  35.1581383  17.6473677  82.6590824  36.0833311  18.7687051
  83.5349274  69.5954418  23.3378482  83.7859154  69.8789406  24.2169762
  83.3685207  70.4092312  22.8621483   9.9354488  24.3483853  28.6560011
  10.8027756  24.3393469  29.0608406   9.4045359  24.8907876  29.2392349
  18.2515621   5.0625890  13.5479069  18.7767231   4.8938334  14.3301845
  18.0012739   5.9835488  13.6215353  18.3672810  32.8211427  64.9326801
  19.0243208  32.1282387  64.9991179  17.6657069  32.5432134  65.5215597
  82.3944378  11.9993722  21.4911199  81.5900993  12.0543504  20.9751272
  82.1533108  11.4762127  22.2555733   1.7427146  57.7289963   2.8857598
   1.9353254  56.8310261   3.1555504   1.8177253  57.7137280   1.9316253
  29.4384003  70.2557850  41.8369675  29.2904305  70.5370569  40.9340715
  28.5858011  70.3533077  42.2609901  54.9947786  60.5798054  14.4119775
  54.3771839  60.2804089  13.7447643  55.2510881  59.7827864  14.8759806
   1.8730693  68.2533026   9.8027593   2.7926141  68.4895515   9.6808678
   1.7179316  68.3703041  10.7400298  24.5435286  34.6520901  57.8498363
  23.7224913  34.7604179  58.3298349  25.0577378  35.4268503  58.0769157
  84.2555428   8.2135147   9.5205081  83.8915157   8.5075736   8.6854953
  84.0155697   8.9010143  10.1417911   4.6999359  25.1495337  65.7987833
   3.7797707  25.3690076  65.9449291   4.7437906  24.9042344  64.8745871
  68.2727051  72.7925444   7.7733821  68.3756590  73.1590748   8.6516112
  68.0887079  73.5499716   7.2177893  85.0786400   5.9712481   4.5845968
  84.5249081   5.7703829   5.3390926  85.9148026   6.2391746   4.9657395
  73.5573053  62.0328426   8.0730450  73.6748075  62.3336697   7.1719748
  73.1558371  61.1682272   7.9864681  18.2447124   9.7127712  21.5043974
  17.8396261  10.5776668  21.5683746  18.9851677   9.8383987  20.9109545
  31.5045142  43.1489849  68.4270716  30.7750368  43.0109549  67.8228855
  32.2267365  43.4369183  67.8687525  60.2611542  74.6156788  15.0162792
  60.8731222  74.2697906  14.3665957  60.7048750  75.3823805  15.3789294
  26.7108250  50.7152605  67.3286772  26.6414571  51.0407400  66.4311886
  26.4678025  51.4633083  67.8741932  79.5624495  80.1267815  37.2135711
  79.6102667  79.9211121  38.1471896  79.4700480  79.2757607  36.7852616
  64.9562550  66.6983891   5.3709728  64.0344429  66.8216181   5.5974787
  65.4346752  66.9908333   6.1467451   8.1010944  34.4211149  61.3812160
   7.4389589  34.0468407  61.9623613   7.9933953  33.9453769  60.5576229
  59.9624681   8.2010937  69.8378658  59.0737867   8.1160527  69.4925499
  59.8742533   8.0194908  70.7735300  52.8935432  70.0744438  15.8320904
  53.5869884  70.4573536  15.2947414  53.2208300  70.1417637  16.7290759
  79.7465324  77.9265690  24.1044402  79.6362066  78.6505699  23.4880948
  79.5134926  77.1462202  23.6014676   2.4140370  38.9160466  11.2972784
   1.5380274  39.1601944  10.9985614   2.4506119  37.9665804  11.1814916
  48.4469318  66.5744114   2.4737012  48.1210232  67.3591805   2.0330727
  48.7550926  66.0114861   1.7634988  29.4153285   2.2506468  23.1936908
  28.5747981   2.7040654  23.1292677  29.1992736   1.3266528  23.0680442
  80.6103611  65.2263260   5.0049758  80.1947117  64.8283291   5.7698739
  80.1324558  64.8659134   4.2580214  47.9601288  52.8884602  68.3993673
  48.5063744  53.0524206  67.6306248  47.1004105  53.2350397  68.1606245
  52.0450687  62.6575184  11.9289362  51.4979696  63.3415031  12.3150480
  52.9406834  62.9158258  12.1466184  83.9418316   0.4442825   3.4777218
  84.7622013   0.2655854   3.9373815  83.4593296  -0.3813749   3.5191181
  59.0107012  68.5942745   2.7132180  58.9105463  69.5253468   2.9114705
  58.2482624  68.1799841   3.1172997  72.1499443  59.7317600   7.1678072
  71.1982632  59.6319199   7.1441454  72.4762678  59.0591860   6.5699869
   0.5386035  10.5361235   8.7096155   0.8600423  10.5944872   9.6093386
  -0.2301919  11.1061168   8.6924911  79.2818260  71.2185478  22.5813293
  78.4043884  71.1988735  22.9633594  79.8518658  71.4812851  23.3040023
  79.6060991  68.0271578   8.5098124  80.0911236  68.0496645   9.3347234
  78.9427805  67.3495245   8.6403877  43.8545609  58.7711000  10.5532968
  44.3845558  59.3207836  11.1305201  43.3728313  59.3921661  10.0069952
  40.4445887  24.7832036  58.4505415  41.0310602  24.0342021  58.3443213
  40.7997513  25.2610993  59.2000103  58.5516596  51.0980654  12.0101976
  59.1758728  51.5870905  11.4740586  59.0705585  50.3946972  12.4003911
  30.6719518  35.1020288  69.0848112  31.1405063  35.3730440  69.8742628
  30.4625225  34.1802025  69.2351627  75.2157927  17.8235412  23.2590580
  76.0463905  17.6589322  22.8126907  75.1331091  17.1035302  23.8843417
  17.7550292  12.6862979  17.2167277  17.1810102  13.3732641  17.5555658
  17.7861309  12.8439820  16.2731171  25.6576395  32.7923489  56.3255692
  25.2497315  33.4838367  56.8468046  25.8656907  32.1058226  56.9593096
  61.2362862  68.5331583   1.2767352  60.4115391  68.4404278   1.7536342
  60.9725428  68.7393904   0.3799961   8.5852802  11.9701910   9.0362257
   9.3699408  12.0115519   8.4895730   8.1381923  11.1724341   8.7535107
  76.2284851  71.8395996  23.4049940  75.5112791  72.4642467  23.2969880
  76.4862728  71.9272327  24.3226528  40.0581837   7.8854990  12.9903209
  40.1064730   7.1811593  13.6366987  39.1577077   7.8528619  12.6673472
  25.6098938  38.0720949  69.5157099  26.0746002  38.0380630  70.3518438
  26.1600280  37.5690222  68.9152908  20.0887227  30.5152249   5.5643094
  20.9794044  30.8361316   5.7055175  19.7910488  30.9729576   4.7781140
  18.4355152  38.3599496  67.8771162  18.2576060  39.2114067  68.2766199
  19.0831757  37.9552627  68.4541750  27.2458696  37.1816969  67.2003651
  26.8261743  37.8467441  66.6546535  26.7800474  36.3719034  66.9918537
  44.4334078  34.7500372  64.5360231  44.7476482  35.1322317  65.3554201
  44.9463606  33.9484239  64.4334173   1.3626856  20.9717870   7.5690490
   1.0505632  21.8643022   7.7181435   1.9631864  21.0487723   6.8276286
  34.6189833   3.8249010  11.4545882  35.1915359   4.2101902  10.7912886
  33.7673044   4.2346865  11.3030958  12.2981453   4.7559971  10.8150542
  12.1786916   4.4961470  11.7285311  13.1391943   4.3733191  10.5652022
  44.2688799   5.8573145  23.1313682  43.5246420   5.2554917  23.1191730
  44.4578028   6.0233486  22.2078037  55.6041241   0.9836217   5.6930935
  56.0970449   0.4907715   6.3491112  54.7710896   1.1838162   6.1199504
  24.9297547  48.3248425  63.7201023  25.2970147  48.6422157  62.8951025
  25.4229784  47.5269270  63.9106083  17.7326584   6.2474018  10.4363525
  17.2114491   6.0537261   9.6572107  18.1354666   5.4108542  10.6690872
  18.0715275   8.5479003   2.0060654  17.3313189   8.3635169   1.4278562
  18.5288405   9.2757833   1.5850152  15.4142129  15.3303015  20.5145383
  15.7143497  16.0231113  21.1028957  14.4770372  15.2534199  20.6934857
   9.3039012   3.4363455  21.8581271   9.9451971   2.7275825  21.8068814
   9.6933651   4.0685269  22.4621940  80.2891922  76.9823742  26.4759183
  81.1958981  77.1714449  26.7175126  80.2057076  77.3130178  25.5815268
  38.6123419  76.9942808  23.2172275  37.7635717  77.4291801  23.1354856
  38.4151602  76.0631609  23.1154275  31.1313009   7.2803879   6.4319533
  31.4090848   6.5855652   5.8350545  30.2774239   6.9919932   6.7543709
  40.7524586  71.6554689  23.1737852  40.2790260  71.2077522  22.4726129
  40.6347322  71.0930729  23.9393473  62.0306921  76.7026281  16.0318470
  62.7914715  76.7783499  16.6077971  62.1725035  77.3684454  15.3589368
  34.5209408  57.9704142   6.1633235  34.3770170  57.0437527   6.3551968
  33.9918447  58.1385422   5.3835660  68.3423901  54.0476465   8.1860048
  68.8583517  54.5651627   8.8042194  67.8590536  53.4304237   8.7352395
  80.5056095  63.0383492  29.3278122  79.6993113  62.5438929  29.4748902
  80.2917862  63.6380768  28.6130810  76.2130165  10.6663215  19.1994345
  75.4438972  10.9733486  18.7194133  76.8014479  11.4210880  19.2169762
  50.1736355  38.5019708  69.3829346  50.0222683  39.3833804  69.7241640
  50.4107094  38.6377358  68.4655476  58.8523293  77.0214367  17.8292108
  58.6117649  76.1133242  17.6456499  58.1139135  77.5355244  17.5025868
  12.6634967   4.7423694  22.2972059  12.3989904   5.4011607  21.6551304
  12.9197836   5.2486020  23.0681014  84.4351101  14.8262835  24.3447614
  83.6147213  15.1552749  23.9774013  84.2063141  14.5497000  25.2321076
  31.9409513   9.7313625   1.5280522  32.6025462  10.1949131   2.0415157
  31.1967802   9.6397948   2.1230793  76.6159725  49.7188997   7.3148316
  75.9288502  50.0925636   7.8666174  76.1864853  49.5555353   6.4751387
  70.8274794  71.0282755  15.0663614  70.8037472  70.0715876  15.0868070
  70.0448942  71.2768173  14.5744085   4.2623517  23.5004020  26.3953495
   3.6677772  23.5982752  25.6516194   5.0844896  23.2012510  26.0069823
  31.4274120  66.6416883  68.3360481  30.7736993  66.5765047  69.0322113
  32.1964741  67.0178938  68.7641191  71.7742682  25.2079892   5.3345621
  70.8460522  25.3279948   5.5351901  71.7812777  24.7970104   4.4701090
  22.2209454   0.3817015   7.5682682  22.4539828  -0.0550308   8.3875304
  22.6498199   1.2357748   7.6217270  16.4612293  12.0505273  21.6223049
  15.8912063  11.9714439  22.3871922  15.9089112  11.7926073  20.8842969
  31.2005424   2.2648299  10.6743217  31.0120153   3.0276701  11.2209141
  31.3358450   2.6255754   9.7980863  28.0256176  32.7753949  54.8702574
  28.8292050  32.5304103  55.3290176  27.3508453  32.7691269  55.5491352
  74.9772501  77.1677685  18.5386181  75.8442593  76.7736387  18.6344516
  75.1481581  78.1062937  18.4599268   5.9106016   5.3883731  16.8423998
   5.9050745   5.5332494  15.8962429   6.8385756   5.3367829  17.0713866
  18.5532069  73.6808968   1.0590760  18.5631871  74.0773153   1.9302726
  18.9066267  74.3589973   0.4833142  70.3992891  63.5741520   3.1700721
  69.7688389  64.2939043   3.1432524  70.2526236  63.0967283   2.3535007
   7.5542372  19.7666919  18.2807124   7.2802180  20.2681947  19.0485930
   8.1045663  20.3717113  17.7833974  61.5637350  18.0945826   3.1306249
  61.1420918  17.9084945   3.9695647  62.4721479  17.8186917   3.2527131
  53.4794140  36.7295551  56.3595915  53.8015842  35.8328319  56.2683392
  53.7372589  37.1607661  55.5448484  13.5885966   2.5930896  15.5328679
  13.1312180   1.9318086  16.0522354  14.3614352   2.1402222  15.1954317
  23.4951687  31.7144990  58.1070089  24.3846083  31.5128899  58.3976746
  23.1876993  32.3809814  58.7214184  52.0946264  76.0920572   8.3357668
  51.6518974  76.8438387   7.9420078  52.8320312  75.9153938   7.7515924
  62.1507454  72.4726295  10.0395119  62.7847958  72.4610853   9.3225193
  61.4318943  73.0149174   9.7148407  31.4196897  40.3995466  60.2032042
  31.9122267  41.2083340  60.3428411  32.0715141  39.7736120  59.8876667
  72.6459360  59.4592857  11.7593944  73.0659151  59.4124651  12.6182616
  71.7942286  59.8610687  11.9308448  81.2696171   4.8731771  38.9041209
  81.5702820   5.3734183  39.6628022  80.4313278   5.2721572  38.6710787
  35.0520205  64.7266769  11.9533944  34.5084953  64.7842026  11.1675811
  35.7029033  64.0562201  11.7458677   8.2973140   1.0980509  26.9056487
   7.4056739   1.1475217  27.2502685   8.3845067   1.8756798  26.3543558
  69.4359589  67.3084974   8.0492741  68.6852169  67.0656919   7.5073659
  69.3892860  68.2626581   8.1094807  25.3687406   6.0442418  12.1455669
  24.6093297   5.4627097  12.1088696  25.8292174   5.7867515  12.9442489
  15.6684589  11.2902856   3.4837368  14.8026550  11.1164021   3.8530350
  15.6241441  10.9399140   2.5940698   7.3086047  17.9574132   3.8556731
   6.9888240  18.8568544   3.9262378   7.6193476  17.8837943   2.9533145
  67.2586298  11.6734517  15.9377408  67.8385639  11.3645959  16.6338098
  67.7017117  11.4216590  15.1274896  78.6058807  28.1980205  29.1233134
  78.2434034  28.9673424  29.5626116  77.8532267  27.7896333  28.6955786
  60.9646559  58.4542847  33.5884070  61.8079948  58.3627987  34.0318584
  61.0583830  59.2443180  33.0561566   8.7016439   8.7344873   9.6958643
   9.1481596   7.8911614   9.7710764   8.6480451   8.8939220   8.7535590
   2.4548039   7.6338005  32.7105856   1.6157582   7.1891671  32.8311491
   2.2282682   8.4623885  32.2882652  21.0008526  11.1360347  23.8868380
  21.2134528  10.7885849  23.0206323  20.0448799  11.1096430  23.9274621
  15.4849684  19.1842151   1.2091315  15.6158400  19.8844254   1.8485147
  16.0788453  18.4884381   1.4909777  66.0546064  80.2158642  25.2435446
  65.1893759  79.8116493  25.1785994  65.9255505  80.9660244  25.8239198
  77.9890823  55.7902575  -0.3099531  78.0624819  55.2308035   0.4632555
  78.1146097  56.6783953   0.0242404  69.5114660  63.9102411   9.8452181
  69.3819904  63.8721228  10.7928538  68.6271143  63.9774132   9.4851589
  33.3459044  63.3721685  60.7942677  33.6022663  62.4945593  61.0776711
  33.1847048  63.8491917  61.6083288  62.5516939  79.0643835   1.5237306
  63.1701088  79.5243788   2.0913547  62.5187874  78.1751060   1.8763459
  50.0174189  66.4540195  56.9253159  49.5760202  66.8773365  57.6616621
  50.5632591  65.7792759  57.3290682   8.5606974   3.6062565   8.3995551
   8.2958114   4.5209807   8.3028746   8.8459647   3.5345048   9.3104374
   5.1623154   0.6407557   8.5988200   5.5608374   1.1689201   9.2905247
   4.2938474   1.0238050   8.4752554  49.6350956  73.2116032  20.2977157
  49.7179699  72.7544737  19.4608200  50.4134560  73.7666702  20.3455496
  65.8943367  51.5798950   0.3447063  64.9852800  51.2993717   0.4503033
  65.9413767  51.9064903  -0.5538233  47.4850178  48.0533361  57.0960617
  47.1242332  47.2412014  57.4517298  47.3959160  47.9598475  56.1476135
  74.8241425  78.5074377  32.6069498  75.4877567  79.1684341  32.4096394
  74.8933029  77.8771210  31.8899107  31.6810751  29.5097661  69.4104481
  32.5215411  29.8689222  69.1261053  31.1328959  29.5332742  68.6261177
  27.6930094  18.9251411  63.0468941  28.0851007  18.0735338  62.8538704
  26.7739964  18.7297571  63.2298470  57.2737837  64.5619535  25.9658647
  58.0664825  64.8031902  25.4866290  57.5747156  63.9414358  26.6296625
  64.0609407  64.4119310   1.4458214  63.5226727  65.1586580   1.7083064
  64.7020245  64.3193007   2.1505634  36.7664027  56.9071436  60.5421925
  36.0991883  56.9520855  61.2270546  36.6884851  57.7399921  60.0768709
  29.9019980  21.4961958  59.6303892  30.8232331  21.6292214  59.4070959
  29.9042511  21.3432455  60.5752850  18.1710458  43.9631462  54.8326397
  18.2478201  43.0828238  54.4647121  17.7466452  43.8321781  55.6805563
  76.1648750  13.0074275  26.9390559  75.6967783  12.5232708  26.2588310
  76.7078686  12.3483658  27.3715234  61.9871950  57.6998568   1.5852749
  61.2549543  57.7394009   2.2004938  62.6622486  58.2514286   1.9806291
   4.2723092  53.1751537  10.9369886   5.2257133  53.2585573  10.9197795
   4.0467024  53.1971788  11.8669605  36.5636110  11.3711822  62.7729988
  37.2731256  11.2704980  62.1384239  37.0004964  11.3595867  63.6246014
  54.3085241  68.5337973  13.6545444  54.1211367  67.6306868  13.3985925
  53.6105013  68.7580776  14.2699242   4.4662499  65.5336809  27.6829767
   3.8236982  65.8136749  28.3348680   4.9112099  64.7899532  28.0893135
  45.6343365  50.0656796  10.5646861  46.0711384  49.2270470  10.7134736
  45.7240105  50.2188826   9.6240902  12.6368165  11.2868881  10.6556702
  11.9197249  11.6760743  10.1551259  12.2548473  11.0957396  11.5122879
  25.7445693  62.0606709  54.7359848  26.5734148  62.1331549  54.2627048
  25.5581236  61.1219120  54.7501040  15.2408361  22.2131062  25.7894254
  14.6687460  22.9104686  25.4690647  15.8847046  22.6636314  26.3359547
  76.3859177  77.2407532  23.4937954  75.9562778  76.6470146  22.8780746
  77.1830082  76.7794800  23.7547493  74.8846197  54.0259838  10.0574958
  74.8253489  54.6574068   9.3405437  74.7440815  54.5472145  10.8479381
  65.7811832  78.9439678   7.4769646  66.1591864  78.6833239   8.3168519
  66.5325642  79.0168953   6.8884587  84.2237854  32.7514625  17.6163673
  84.4704723  32.3648405  18.4565473  83.5331440  33.3773661  17.8342950
  59.7809124  71.4445925  15.1016653  60.7312202  71.5433025  15.1599658
  59.5114470  72.0976734  14.4558275   4.7156894   3.1228709  15.8611155
   3.7814429   3.1041208  16.0686338   5.0761354   3.7947798  16.4397764
   4.1583008  68.7236023  17.2422731   3.8051641  67.9643345  17.7059901
   3.9619762  69.4659233  17.8138077  85.3078365   1.4836717   7.9589760
  84.6093750   0.8318959   8.0187756  86.0550213   1.0021403   7.6039088
   9.7321737  16.3684249  31.2433839  10.2656746  16.1313736  30.4848242
   9.9580461  17.2818601  31.4190245  27.4269152   1.0356200  20.3120685
  27.9003716   0.5671502  20.9995341  28.1082082   1.4999792  19.8258138
  56.4342690  72.1596527  12.2016847  57.3015594  71.9440508  11.8588305
  56.6080761  72.5952578  13.0361140  20.0410843   4.0399450   5.8058757
  20.4955649   4.8697263   5.6604737  19.3325353   4.0389621   5.1623005
   6.6459262  54.1623259  52.5262070   7.5587046  53.8748837  52.5051594
   6.6432077  54.9072647  53.1272793  26.4166903  66.7034197  52.2814703
  25.7498837  67.3725843  52.4357891  26.0280609  65.8959627  52.6179457
  39.2876220  14.9855292  56.3417053  39.7125769  15.8416688  56.3933849
  39.7823358  14.4355226  56.9491482  82.5050449  80.0141525  14.0292764
  82.7671719  79.3845606  13.3576131  83.1609631  80.7091808  13.9750934
  35.2555537   9.2823368   7.4595314  34.7972298   8.9232725   8.2192981
  34.6441007   9.1634524   6.7327416  80.1471329  15.4333639  36.2918448
  79.2404747  15.7393479  36.2677097  80.3472137  15.2053785  35.3839779
  63.5907173  73.3343649  30.7331371  62.9614782  72.7099228  31.0941863
  63.2341385  74.1928291  30.9614348  37.5219297  64.0776443  67.2987604
  37.0549250  63.3955526  67.7813482  37.9003859  64.6354628  67.9783487
  23.2183504  27.5706148  26.3500857  23.3575273  28.0648637  25.5422616
  24.0952373  27.2930360  26.6151309  67.3243952  18.3655429   7.5528634
  66.9923449  18.9559913   6.8765903  67.6009369  18.9454603   8.2624078
  48.1129742  48.9707613  45.8038950  47.6046371  49.2784691  46.5543222
  48.9329767  49.4621658  45.8523607   0.6487242  56.3868809  29.1697741
   0.6265794  55.4431391  29.3282008   0.9977016  56.4726877  28.2825947
  47.2717762  36.6021538  68.9226627  47.3423576  37.2434998  69.6297169
  47.9119158  35.9268117  69.1470957   2.2732556  76.6869259  34.6551824
   2.7039593  75.9808397  34.1733432   2.9461142  77.0149517  35.2517486
  13.7747276   0.7614688   5.8637708  13.1693697   1.3395754   6.3280624
  14.5759749   0.7837177   6.3869727  28.7086439   2.2510348   3.4549582
  28.5031700   2.8416774   4.1796336  27.8749371   2.1306163   3.0003536
  18.2431042  26.7590213   9.5369589  18.6377680  27.4247456   8.9736795
  18.8106823  25.9946036   9.4382024  34.8094821  25.3530598  63.5553885
  34.9723172  25.7807302  64.3961096  35.6743717  25.0687551  63.2598019
  58.4199667  33.5054874  61.5433836  57.7997637  32.8165698  61.3046980
  58.1021309  33.8328815  62.3848248  25.0488091   4.8704639   6.3715476
  25.0794220   5.2367479   7.2553635  25.2283454   5.6149912   5.7973719
  49.2085457  30.0675631  70.0290632  50.1366806  30.2834702  69.9386263
  49.1797447  29.1117382  69.9866247  39.4224954  31.2682843  67.6066113
  38.8925147  31.9367337  67.1724129  39.7274566  30.7050467  66.8952799
  30.5876184   8.9152926  65.4266644  30.9587550   8.5623318  64.6180201
  31.3050914   8.8711518  66.0587358  11.2683797  40.4768467   8.9189303
  10.5857170  40.0833321   9.4623893  10.8068562  40.7806158   8.1372947
  19.9446869  70.0293970  34.8375535  20.5442595  70.6979895  34.5062995
  19.0879726  70.2855492  34.4959998  57.7344465  37.6268053  62.9670668
  57.1336794  37.4934220  63.7002277  57.2049522  37.4529076  62.1888494
  10.3201544  29.5347738  20.2886963  10.9420216  28.8801146  19.9709904
   9.4623005  29.1911840  20.0391674  22.5179052  19.5827293  34.8623943
  22.8446698  19.8946786  35.7062793  21.7213798  19.0978324  35.0783920
  25.8916783   0.9581460   5.2972484  26.6382051   1.5485471   5.3990000
  25.8454156   0.4851322   6.1281216  11.6323578  25.3341103  16.5383255
  10.8907282  24.9287367  16.0890031  11.6454983  26.2347221  16.2143540
   5.7666397  30.9216499  30.3441310   5.0986344  31.6032839  30.2708244
   5.3273839  30.1233101  30.0509763  81.4080048  56.8579912   7.7526885
  80.4932404  56.7822456   8.0241817  81.8981171  56.3908005   8.4292626
  10.2498996  14.6288097   2.2944300   9.8654175  14.1770828   3.0456606
  11.1948049  14.5482326   2.4244039  14.9042571  12.2952402  43.5058308
  14.5591199  13.0040121  44.0487432  15.8509803  12.4363983  43.5011148
  50.1127100  52.0319653  62.3969126  49.5278263  51.4260769  61.9418955
  50.6404018  51.4727783  62.9670715   0.4687547  16.9625783  15.6112075
   0.3539376  17.0766032  16.5546310   0.2496607  16.0444033  15.4525065
  66.1575699  45.8168650  68.7768459  65.2161264  45.9238195  68.9127684
  66.2558746  45.7451916  67.8274107  83.9085484   7.7564496  20.9575224
  83.5314178   7.2619611  20.2298641  84.6764565   7.2486764  21.2196636
  29.4498467  53.2110071  65.6226349  29.7900224  52.4674892  65.1249456
  28.7476850  53.5639095  65.0761366  36.6961312  52.0834970  66.7654514
  36.3296056  51.2768936  67.1277761  35.9896445  52.4498320  66.2335587
  12.7153695  16.4173305   3.9695379  12.5540900  16.5957868   4.8960227
  12.5841594  17.2609580   3.5367477  84.0439987  70.7449055  29.1300321
  84.7654819  70.1252556  29.2383099  84.3747139  71.5642738  29.4981337
  55.0172091  67.5854254  68.8071966  55.3226471  68.4925175  68.7963247
  54.1605711  67.6262236  69.2323351   0.9990707  16.2518692  11.6555274
   1.5721269  15.4968047  11.5224254   1.4195198  16.7511868  12.3556256
  31.1708069  21.1240005   4.4014397  31.5500808  20.2937818   4.6897480
  31.1785173  21.0717702   3.4456968   5.8752298   6.2290198  36.9383550
   5.2616763   6.1502796  37.6688218   6.7400807   6.1867869  37.3463750
  53.3349276  68.6821461  65.7368803  53.5988474  68.2854795  64.9066830
  52.6645613  69.3210316  65.4946661  62.3664093  56.2493277  25.1049638
  61.9719648  56.1714411  25.9736300  62.0437765  57.0857668  24.7695374
   7.0559931  16.7289138  22.8484917   7.8011578  16.4149559  23.3607340
   7.2897071  16.5333736  21.9410920   1.0161852  53.4652519  19.1221976
   1.7879662  53.1244183  19.5743215   0.6819965  52.7196789  18.6235309
  83.4533310  14.7607505  12.2254360  82.9707909  13.9391494  12.1340120
  84.2088032  14.5356703  12.7684271  26.6909838  16.6791809  29.5838451
  26.2406707  16.3888776  30.3770494  27.4386263  17.1839273  29.9039912
  46.5057850  48.2129335  66.4265394  47.1357870  48.6616611  65.8626509
  45.6571484  48.3763742  66.0150385  24.6013069  37.6573420  27.4149299
  23.6767459  37.8485417  27.5726032  24.8297691  37.0116210  28.0835700
  24.6603251  30.2477288  17.7745938  25.2774000  30.7962060  18.2589746
  24.6951461  30.5820608  16.8783557   5.2437633  33.1608415  11.1534643
   4.3231419  33.1997943  10.8942902   5.7035911  33.6620903  10.4800105
  15.0380671  29.6773005   0.9705617  15.9742439  29.8159075   0.8270593
  14.9969041  29.0319300   1.6762780  14.2180264  30.2683806  14.4892204
  13.7587261  31.1016250  14.3844485  13.9090049  29.7311759  13.7597346
  18.2347846  11.3543153  24.3731999  18.3909523  11.6070759  25.2831197
  17.3042870  11.5291655  24.2323709  42.4534750  29.3309474  67.5580359
  43.0082989  30.0242686  67.2006702  42.0227957  29.7336006  68.3121014
  50.7666874  31.4216065  53.0347490  51.0502768  30.9598827  53.8238096
  50.9130192  32.3465753  53.2328606  44.1970730  58.0165863  54.2681122
  44.3722916  58.3337831  55.1540709  44.0374517  58.8099194  53.7568712
  41.2321758  48.8343620  67.3842764  41.0214043  49.7607899  67.2679043
  42.0513296  48.7129593  66.9042015  69.2724037  74.2837334  14.8156285
  69.2933989  74.2778349  15.7725799  68.9626074  75.1604080  14.5882571
  24.4780231   6.3452750   8.5469782  23.7347603   5.8858490   8.9377713
  24.9727082   6.6801673   9.2948866  42.3673058  41.5848589  67.3125744
  42.9785681  41.0086489  66.8536997  41.9631433  41.0256433  67.9760218
  38.9145327  15.2321005   4.2809370  38.1229520  14.6962798   4.2306709
  39.1064501  15.4617393   3.3717251  74.5491362  78.6172009   3.4364372
  75.4006100  78.5665083   3.8707766  74.1927481  79.4636774   3.7060580
  20.6973529  27.9897404  22.5829411  21.2128496  27.1930933  22.4570465
  20.8638453  28.5095239  21.7965961  57.1523762  55.7551527  66.6748333
  56.7698240  56.5808964  66.9715452  56.4008856  55.2240086  66.4114285
  42.4260139  73.3193684  67.7052259  43.1287575  73.0157423  68.2798529
  42.2702932  72.5865316  67.1094656  77.8310347  10.8298528   2.6141000
  78.0984926  10.0377965   3.0803016  78.5005140  11.4766192   2.8370887
  50.1288795  49.2954779  67.1361637  49.4135094  49.5425463  66.5501308
  50.7081556  48.7596464  66.5943527  58.0652952  74.3266153  17.5263512
  58.9658642  74.0050030  17.5684834  57.5260067  73.5398912  17.6067579
  52.5280380  75.2767038  62.7747488  52.0050430  74.8682404  62.0849180
  52.8438807  76.0918903  62.3849487  21.7525864  22.0236874  19.8504043
  22.6832104  21.8022799  19.8843098  21.3549495  21.4935780  20.5411291
  22.2796369  79.9220419   5.0762671  22.8137302  80.5040932   4.5357150
  22.8046370  79.7775030   5.8634871  21.9258666  11.6671932  30.9723663
  21.9479799  12.6071525  31.1518645  22.5279856  11.2869787  31.6119909
  21.7199516   9.3435234   2.6331565  21.4620662   8.4416515   2.4424915
  21.1064887   9.6301103   3.3097374  85.6535816   4.7552016  16.7912889
  86.0688591   5.1879799  17.5372660  84.9957752   4.1808975  17.1833313
  32.6234436  73.0922890  66.5367651  31.9193578  72.9129791  67.1599388
  32.6474452  72.3187876  65.9734297  52.0490837  47.3723841  65.6445694
  51.8559885  46.5114212  65.2734995  52.9198408  47.5874567  65.3102732
  52.6586676   4.6320245  18.1311715  52.3931837   5.1810086  17.3933601
  52.9061127   5.2538353  18.8155353  16.8052590   4.2562714   5.6580937
  15.9663665   3.8279867   5.8285737  16.5955150   4.9563313   5.0399065
  20.2020693  59.6246576  12.5949097  19.2513621  59.7132063  12.5274980
  20.4765248  59.3229961  11.7289400  11.2617159  19.3936598  38.8201332
  11.4805114  20.2991581  39.0402126  11.7128086  19.2329121  37.9913354
  41.9364691  49.1525793  60.4731321  41.7904425  49.9079990  59.9037027
  41.0603333  48.8042641  60.6383371  44.9061632   6.3318276  15.7466936
  43.9836216   6.5742224  15.8266139  44.8955250   5.5038202  15.2665663
   1.8920574  32.6716900  24.5277786   1.7239979  32.6987529  23.5858369
   2.4991894  33.3951068  24.6836305  48.5870695  69.4893026  67.1572924
  48.8735580  68.7533617  66.6164160  47.6317596  69.4291782  67.1569681
  83.6426163   5.6807739   6.9095498  82.8460407   6.1089599   7.2231603
  83.9872074   5.2242708   7.6770729  71.6603565  71.1096525  19.1392207
  71.8245173  71.6467142  19.9143624  71.7947817  71.7054319  18.4021938
  27.4546242  44.3519211  22.2545266  27.7238989  43.5624981  22.7241397
  27.7933979  45.0732899  22.7847075  71.1062288  21.2596941   8.6926472
  71.2339544  20.9719872   9.5966065  70.8114386  22.1671224   8.7694919
  15.7674694   7.5634468   7.2987956  15.2044761   7.7635753   6.5509868
  16.6534293   7.7504647   6.9884205   9.8460251   2.7976918   1.6563085
  10.4129040   2.8227514   0.8854307   9.1167712   2.2335413   1.3991018
   9.4881386  72.2018623  24.9899387  10.0185716  72.7068424  24.3736029
  10.1259458  71.7156315  25.5124450  27.9480243   5.9473395  17.5767124
  28.2140541   5.2467358  16.9812179  28.0345368   5.5651343  18.4500206
  83.0834198  77.2474575  26.6393113  83.5270214  77.3424864  27.4821734
  83.4798717  77.9180050  26.0830522  71.2453079  64.4853830  63.3352423
  72.1572113  64.2129087  63.4373093  70.7481194  63.6675310  63.3477783
  52.1957397  44.3439150  65.0334263  51.3050842  44.3177366  65.3831148
  52.0866394  44.2195559  64.0906286  11.0050452   6.7825407  33.3368516
  11.7616081   7.2240859  32.9509997  10.2950323   7.4209487  33.2694077
  78.7607861  74.7416592  16.8462443  79.6488523  74.9077940  17.1624255
  78.7962914  74.9490499  15.9124565  77.2192144  72.0860720  16.8109536
  77.6725626  72.9224873  16.9163883  76.2896824  72.3102140  16.8551779
  82.7275372  73.9076614  14.4014823  82.4671459  73.3230495  13.6896849
  82.2072601  74.6992254  14.2637730  13.8156354  24.2372203  24.8565960
  13.3333540  23.6756396  24.2497468  13.7011468  25.1210833  24.5074415
  19.7941399   9.5027602  27.8587270  20.4290748  10.0933421  27.4533820
  20.3032660   8.7258434  28.0898595  43.6011028  58.5299683  58.0005693
  44.2453241  59.0745163  57.5481558  44.1194344  57.9957199  58.6023521
   8.7111640  19.3431413  10.8377337   8.9790791  18.7437820  10.1411557
   7.7609372  19.2402768  10.8898938  62.0206785  74.8166990  65.4229116
  62.7368927  74.2273617  65.6594467  62.4017954  75.6927395  65.4823589
   2.7850613  21.4316368  27.4617267   3.3960813  22.0346093  27.0382786
   2.3129764  21.9736981  28.0938148  77.2092199  56.9304895  25.4321432
  77.0784140  56.0631514  25.8153534  76.3758802  57.1325493  25.0067568
  22.6271820  55.5462408  68.3683920  22.5788188  55.0259161  69.1703653
  23.0379343  54.9638128  67.7294111   0.6397239  42.8464746  40.3780413
   0.3734453  43.5352898  40.9870243   1.1728542  43.2981348  39.7238183
  77.7049160  13.2562852  18.8325143  78.0366135  13.5945272  18.0007684
  76.7591000  13.3965921  18.7880254  82.7327919  16.6371667   1.0757927
  82.3888016  17.1198058   0.3241494  82.0405293  16.6944218   1.7343754
  51.7908478  74.6099854   4.1797897  51.2257862  75.1588821   4.7235295
  52.6097393  74.5481777   4.6715459  75.7679272  55.8307934  58.2811451
  75.6587124  55.4009008  57.4329138  75.5394650  56.7457485  58.1171322
   5.4526681   8.8698691  23.6140752   4.7483006   8.2229733  23.5737872
   6.2526107   8.3616167  23.4798980  12.3986185  33.5651422  38.7917113
  13.0607903  32.8955126  38.6203766  12.5377429  34.2201042  38.1076789
  85.9200954  79.3508291  17.0429230  85.2083778  79.9858427  17.1232307
  85.9472656  79.1382265  16.1100268   2.0146446  13.0389845  24.2523384
   2.1058077  12.2764051  23.6810303   1.8789379  13.7726378  23.6526966
  54.4436836  27.0895243  59.7696257  54.4909859  27.9424548  59.3377590
  54.6989870  27.2651339  60.6752825  45.5558491  56.6578484  63.9684963
  44.9278975  56.5214062  64.6779251  46.1861753  57.2844934  64.3237877
  24.9981594  12.4211562  14.4059837  25.9127355  12.1547163  14.3122160
  24.5022392  11.6059399  14.3303668  82.7610874  64.4510603  28.0582809
  82.3912811  65.2757978  27.7432013  82.0484447  63.8185930  27.9668140
  74.4807243  60.6186724  28.4113836  74.7787046  61.4897490  28.6734271
  73.6271524  60.7696152  28.0053520  63.5220194  55.9556246  61.5596199
  63.9975262  55.4339409  60.9131145  63.4691715  55.3911448  62.3308563
  27.5846457  65.8332443  65.2319527  28.3344650  66.3511038  65.5249071
  27.9372621  64.9526978  65.1033974  21.1094832  17.0876801   3.3252606
  20.6989598  16.7439294   4.1186944  21.5500045  17.8880155   3.6109811
  81.2071133  46.1234331  22.2697759  81.2360477  46.0679150  23.2249284
  82.0963573  45.9059572  21.9901752  30.1350284  24.4603372   1.5976866
  29.5662737  24.3195581   2.3546088  30.1044631  25.4051995   1.4475673
  25.4937720   9.3357551   4.5008227  24.9360085   9.7810274   5.1386809
  26.3394785   9.7784328   4.5718905   1.3884397  75.9825754  31.4642930
   1.7448449  75.2645302  30.9412026   1.7240536  75.8255005  32.3468590
  32.4262714  23.1377125   0.4663523  32.4283075  22.3605514   1.0251456
  31.5861607  23.5597634   0.6461176  74.6764946  71.6889477   5.8245295
  73.8233185  71.7835665   6.2480581  74.5144367  71.9099379   4.9073955
  55.1123524  58.8169956  57.4902534  55.2582693  59.7253132  57.7546406
  55.7713079  58.3181763  57.9731464   5.6346834  80.0536919  12.1895850
   5.9920919  79.1700220  12.1022952   6.0537148  80.5519295  11.4878714
   7.4946976   7.7164519  16.0627925   8.3856589   7.8991359  15.7643867
   7.5903302   7.5159401  16.9938564   6.3974243  23.6293888  17.6426399
   6.0833776  23.1242871  16.8926537   5.6034881  23.8621736  18.1240010
  46.4632225  47.9267740  54.6556664  45.6708765  47.5264740  55.0136900
  46.3125086  48.8687038  54.7349358  23.5807157  69.7758532  21.4630914
  23.3765841  70.4755116  20.8425736  23.1351709  69.0055084  21.1105418
  31.8309379  21.5198112   8.4021598  32.2769427  21.3889956   9.2389387
  31.3067532  22.3102689   8.5311466  85.5342388   5.5619806  22.4556279
  86.0499954   4.7980970  22.1973634  85.1217937   5.3048337  23.2802534
  17.0713794  78.6506653  26.4770365  16.2350595  78.2215309  26.2963557
  16.8488646  79.3694448  27.0687079  13.3448231  35.1343846  11.2032092
  13.1250584  34.4384122  10.5838871  14.0169907  34.7504902  11.7662787
  54.6602678  68.6191940   4.8485211  54.4142628  68.9956951   4.0035588
  55.1918936  67.8553152   4.6246988  27.1554756  30.9278703   0.9350875
  27.3382092  31.0307264   0.0011383  28.0116558  31.0033178   1.3563883
  16.4101422  59.2953205  15.0697994  16.1258304  60.0393057  14.5388746
  15.6661975  59.1123915  15.6436586   9.9465501   8.9387256  43.0170202
  10.5531394   9.5326835  42.5748730   9.2887735   9.5146286  43.4067583
  36.8672609  37.3286295  66.1369944  36.0792184  37.3500013  65.5940771
  36.6291833  36.7783904  66.8831778  19.1594040   0.2100370  25.4792500
  19.8052037   0.5466449  26.1004353  18.5085261  -0.2305351  26.0255885
  52.1469831  70.2523470  61.7368937  51.8084431  69.4452143  62.1244001
  52.0659018  70.9045172  62.4328327   0.3038908  39.2376709   3.3050615
   0.0099158  40.1106548   3.5652792  -0.1371239  39.0750957   2.4712107
  31.1292624  15.8483779  23.0957079  30.1975226  15.8979106  22.8820753
  31.5203285  15.3840888  22.3556161  29.1888237  64.8371410  70.3096533
  29.7510362  64.0746212  70.1728630  28.3036351  64.5159721  70.1378202
  48.8603067  61.2366199  57.0776987  49.6314144  61.2241220  56.5107155
  49.0106773  60.5269575  57.7021980   3.7515467   1.9790374  32.2532058
   4.3833604   2.4980514  32.7508688   3.0116081   2.5703770  32.1152186
  82.2326279   0.6628007  42.4509192  82.9505539   0.6118534  41.8198776
  81.6238880   1.2960300  42.0705462  83.1974411  14.2461431   5.1137805
  83.6018562  15.1087511   5.0211197  82.9380322  14.2008388   6.0340452
  24.2764544   4.0937686   2.7997574  24.6692753   4.7305238   3.3968049
  23.3330560   4.2145848   2.9076150  20.6422281  15.8512509  10.9811807
  19.8090267  16.2198424  10.6876707  21.0819077  16.5765119  11.4249265
  27.2678375  19.8978090  18.1138122  26.7040396  19.3236291  17.5954664
  27.7759600  20.3842187  17.4646211  29.8512626  41.3914204  66.2683535
  30.2815294  40.5404329  66.3515759  29.2351389  41.4208889  67.0003080
  45.4061031  30.2492929  67.6296902  46.0463905  29.8346210  68.2078838
  45.4275942  31.1747742  67.8731155  72.4949503  57.8993130  61.9430923
  71.9234753  57.2906923  61.4748812  72.0864582  58.7558746  61.8179083
   9.2326152  16.9140077   6.2878859   8.5832214  17.2116184   5.6507456
   8.9711088  16.0168612   6.4951885  18.5562027   1.3081495   9.5314109
  17.9349864   0.5880101   9.6396816  18.5874879   1.4574444   8.5864431
  37.7881908  49.6578169  69.1973066  38.3267570  49.0485287  68.6923885
  37.1655345  50.0105238  68.5616016  56.1142874  43.7497234  62.4615812
  55.2836275  44.0885925  62.1278000  56.2968063  44.2827654  63.2353878
  21.7007613   4.6583766   2.9226837  20.8013272   4.4709495   3.1912413
  21.6090727   5.2378267   2.1663356  12.5992155  32.8325272  14.4920409
  12.7255499  32.7763462  15.4392016  11.6775584  33.0686021  14.3869269
  66.4882088  66.9212914  69.1082382  66.9943953  66.7969751  69.9110746
  65.7665062  66.2967253  69.1809940   5.2922994   1.2447818   1.6165578
   5.8960104   1.3626042   2.3499629   5.8572620   1.0373685   0.8722264
  49.6735096  67.1660519  66.1576128  49.1118622  67.1397877  65.3829527
  50.5331469  67.4198532  65.8217001   8.7835175   9.7003877  13.5160899
   8.7545967   9.9584818  12.5947952   7.8860754   9.8202294  13.8266814
  50.7259226  41.6038513  67.5952435  51.3723183  40.9063625  67.4861002
  51.2384033  42.3647308  67.8684807  10.2178073  27.0684409   9.8948592
  10.2367246  26.7818928  10.8079660  11.1382937  27.0979047   9.6339571
  12.8254128  19.5923126  11.3163877  12.3808420  19.4169068  10.4870379
  13.3016515  20.4086900  11.1648738  80.1799011   3.5629433   7.7404493
  79.7658777   3.8535565   8.5530770  80.0841331   4.3054456   7.1440005
  56.7370224  77.9471588   6.8097544  56.4263391  77.3537588   7.4935538
  57.5053263  77.5092077   6.4435041  37.8288174  60.4946089  62.2065639
  38.0478501  59.8056841  62.8339720  38.5484529  60.4815197  61.5755463
  72.6790667  71.5286875  21.8039870  72.8240681  70.5951595  21.9580269
  73.4333467  71.8055916  21.2837744  70.3415060  59.4524431  31.4875460
  69.5702267  59.2126799  32.0012307  69.9856997  59.8161507  30.6767726
  17.1240234  38.8595915  18.8155544  17.5354803  38.9075518  17.9526317
  17.8487861  38.9613986  19.4324708  36.3729215  17.6861703   1.2657797
  37.0731139  18.0658126   1.7966600  36.7493200  17.6147008   0.3885977
  21.4416957  12.8985786   0.7634984  21.2039113  13.3751214  -0.0318614
  22.2435117  12.4301362   0.5313637  34.7074771  42.3909187   9.6044397
  34.0812492  43.0264044   9.2576945  35.5642486  42.7850103   9.4405252
  20.0274038  23.3152604   5.4308021  20.7280159  22.7309895   5.7206321
  19.2241836  22.8136086   5.5701369  66.8436909   5.9674269  62.5076580
  67.7786398   6.0056108  62.3060513  66.7776394   6.3022804  63.4019375
  16.9159400   6.8982565  15.3781402  17.3265660   7.2784030  14.6015406
  16.1511171   7.4507689  15.5394077  43.4856033  13.5643625   7.6045275
  43.5842085  12.7304804   8.0640376  42.8728914  14.0641284   8.1440151
  21.9356680   3.3998287  16.9998419  21.7970610   4.1494149  16.4209282
  21.2572670   3.4858143  17.6696253  15.1371002  52.9584312   6.1142975
  15.1875365  53.5856628   5.3929996  15.1342046  53.5004330   6.9032574
  26.3658595  10.4583383  31.3628983  25.4697323  10.4226995  31.6974401
  26.8506050  10.9469402  32.0281219  52.5754070  40.2244806  59.3547106
  53.3629847  40.7488441  59.2098141  52.4642754  40.2168798  60.3054047
  19.1461718   5.5036533   2.8507546  18.5598707   6.1666626   3.2153115
  18.6988151   4.6731055   3.0129078  70.8710527  67.3355818  66.1800051
  70.4968882  66.8990803  65.4146957  71.0089207  68.2394266  65.8966494
  64.1979456  72.0001554   8.2741272  64.7933054  71.6834068   8.9534289
  64.1763210  71.2952614   7.6269084  66.3570070  75.8257484  67.7639055
  67.0184612  75.3318024  68.2483912  66.5245247  76.7397070  67.9937983
  45.2414751   9.5044374  11.8657303  45.3628349  10.4343557  11.6740143
  45.8196878   9.3358147  12.6096845  31.0349965  15.3568041   1.1768419
  30.4689908  15.5791080   1.9160643  30.4292536  15.1425779   0.4673245
   4.5970193  27.2812605  10.2833533   4.7760332  27.8951144  10.9956503
   5.4168427  27.2400260   9.7909904  30.9823370  20.4658604   1.3728979
  31.5262723  19.7624922   1.0184425  30.1442337  20.0460219   1.5666847
  19.7779191  34.3236828  18.0665970  19.6535969  35.1335216  18.5615075
  19.4017816  33.6423159  18.6238158  26.0154915  16.7479599  12.7157235
  26.5096307  17.4792111  12.3451424  25.5147243  16.3991284  11.9783103
  19.3770039  25.6503367  16.1754858  19.9326742  24.8712635  16.1980128
  18.8974679  25.5787182  15.3501689  45.3565216  60.5218124  69.0663624
  44.8588181  60.2678204  69.8435450  46.2500191  60.2306938  69.2484236
  28.8275957  47.5916767  33.1470466  29.1961074  48.2016277  33.7861013
  27.8983021  47.5424576  33.3711505  21.0371757  12.4911392  10.2873051
  21.0502148  13.0984080  11.0270929  21.9598246  12.3600566  10.0687456
  15.0201523  25.2042556  21.3681030  14.6698499  25.8915305  21.9348264
  15.0459862  25.6016111  20.4976583  16.3228357   3.1541827  28.1804800
  15.8423674   3.6193508  27.4956441  15.8007073   2.3697758  28.3487630
   8.9855564  22.0986509  16.9243395   9.9029768  21.9860029  16.6755784
   8.4983158  21.9587064  16.1124003  41.5577507  24.0341306   2.1189857
  41.8313408  23.2495499   2.5941828  41.8793821  23.8986564   1.2276770
  33.2148743  17.2165442  20.3786135  32.8214169  16.3587201  20.5384922
  33.8649511  17.0580614  19.6941304  37.6122808  13.7266660  23.8477039
  37.8228855  13.8902652  24.7670031  36.7132378  13.3984399  23.8626957
   4.4186935  24.6136618  28.9582634   4.2838648  23.9209175  28.3116126
   4.1946340  25.4207253  28.4949303  54.1489935  50.9497976  65.6068468
  54.3923044  50.6404400  66.4793873  53.2595301  51.2875271  65.7118702
  80.5298328   7.6441067  64.8109055  80.8875561   6.8567133  65.2211189
  80.0668716   8.0933517  65.5180693  53.5887051  76.4631891  48.6848068
  53.5687590  75.7302284  49.3001127  52.9522419  76.2268496  48.0100489
  27.9486036  27.5317645   3.6353564  27.8636503  26.6891694   3.1892073
  27.0543933  27.8703141   3.6801100  14.0168512  23.9757776  14.0806031
  13.4631336  23.5004878  14.7000635  14.5930541  24.5052814  14.6318257
  17.6392627  72.2144890  19.7565305  18.1256568  71.4925718  20.1546311
  17.9666901  72.9971218  20.1998281  49.4066525  59.0054989  63.4766150
  50.2766037  58.6643696  63.6840963  49.2862940  59.7381020  64.0808058
  17.0782137  16.7399657   0.6895314  16.3745093  16.1306226   0.9125412
  17.5210500  16.3323867  -0.0547852  48.2034540  45.9642696  53.5430336
  47.5951958  46.6657639  53.7757635  47.6401091  45.2329779  53.2898712
  29.9574471  15.0119030  15.0542760  29.2231917  14.8901987  14.4523692
  29.7138762  15.7752299  15.5779517  50.3795099  77.4111080  32.5071263
  50.5242825  77.6770115  31.5990686  50.6496811  78.1695747  33.0247760
  32.0693994  61.7199373  66.5952873  31.3954902  62.3558426  66.8355083
  31.9794464  61.0198402  67.2418165  54.8031998  40.9908342  66.1403179
  55.1310492  40.5477667  66.9229078  54.6360588  41.8890190  66.4259005
  47.0084143  66.2789059   4.7528663  47.4209976  66.1704826   3.8959819
  46.2676668  66.8628216   4.5898712  58.2761240  66.8846035   0.6323493
  57.4131346  67.0207024   0.2412552  58.4039593  67.6440716   1.2007630
  83.8817978  74.4638491  38.5260940  84.1283226  75.2942228  38.1187367
  83.0531788  74.6503019  38.9675117   4.1683385  15.7416499  49.3480158
   3.7875015  15.3814554  50.1489258   4.9594963  15.2223432  49.2044163
  38.5563040  21.3495898   7.7277213  39.1988873  20.6401944   7.7189058
  39.0822458  22.1488118   7.7570683  38.0073929   0.4907125  50.9201193
  38.6893439  -0.1689147  50.7933664  38.3613729   1.2821758  50.5145168
  76.9872856  45.8002520  25.7119370  76.9596767  45.2162552  24.9540353
  77.2746277  46.6410971  25.3560567  20.8751774  51.1442661   0.7248649
  20.7364845  51.8090534   1.3994378  20.0053501  50.7765865   0.5685110
  67.2619104  40.0039816   2.6614609  67.4558687  40.8830500   2.9868037
  66.5793753  40.1372051   2.0037176  31.8333125  16.2959576  62.7804518
  31.8912363  17.1637166  63.1802940  30.9772325  16.2861586  62.3523569
  67.4571943  64.9357128  60.4309607  68.2989216  64.9628735  59.9760008
  67.1381998  65.8376122  60.3985500  33.9275694  20.9178805  63.0012369
  34.5453215  20.1868558  62.9864550  33.9247394  21.2106776  63.9125490
  67.9708052  31.0606766   2.3424716  68.2311440  30.9449315   1.4286564
  68.3646965  31.8941998   2.5999981  22.0532417  15.7739639  55.9731627
  22.6641369  15.0639832  56.1705589  21.4165831  15.3827500  55.3749561
   4.7783738  64.8877144  37.2320056   4.3637964  65.4910326  37.8487444
   5.6846583  64.8226929  37.5330925  62.1266699  53.8381147   7.5075155
  63.0749035  53.7759686   7.6225019  61.9977951  54.6483278   7.0143807
  47.0693302  57.7705765   9.0395856  46.3788748  58.3301926   9.3950206
  47.3695946  58.2296038   8.2551330  23.3972239  26.6351700  61.6974068
  23.6995864  26.8942022  60.8269405  22.4563909  26.4939499  61.5919542
  71.1381721  39.4701242  16.3302302  71.0266209  39.5766020  17.2749269
  70.2924824  39.1419816  16.0246718  15.0300682  12.8579223  58.0225897
  14.4783354  12.2215736  58.4774303  14.4122565  13.4176588  57.5522280
  46.0073805  11.9277120  68.1009293  46.7288876  12.4880886  67.8152132
  45.5026627  11.7624068  67.3045826  34.8524833  22.0149803  54.4130659
  34.5650673  22.1478415  55.3163767  34.1314578  21.5401363  53.9996910
  52.4635029  53.1447887   6.0303175  52.8856182  54.0034151   6.0018319
  53.1297588  52.5623369   6.3951254  78.7055302  80.6180191  62.0218086
  79.1445971  81.2777424  61.4849472  78.9568424  79.7826385  61.6278362
  29.1511583  11.2601161  65.1735973  28.6859798  11.1679876  66.0050726
  29.8966169  10.6644249  65.2489233  74.2810822  49.2814016   5.2824265
  74.6253204  50.0512409   4.8295689  73.7098074  48.8609600   4.6396923
  16.6353703   5.8796245  52.8824615  16.4641106   5.0057757  53.2335901
  15.9761703   6.4372230  53.2957077  62.5020027  67.4928093  48.8966274
  63.2159472  67.6308346  48.2741642  61.7083263  67.5297832  48.3628273
   5.0788265  71.9401121  61.4185381   5.2129370  72.0380068  60.4758501
   4.2716008  72.4225712  61.5969992  80.7386684  26.1093855   7.4095100
  79.9907732  26.6775012   7.5942445  80.4598045  25.5821800   6.6608310
  58.4637499  21.5148163   6.0743284  57.9831409  21.2610650   5.2863854
  58.4361744  20.7376242   6.6323990  42.1214342  43.9601088   7.0339310
  42.9278183  43.4474802   6.9774377  41.4230871  43.3059788   7.0595831
  30.3881121  78.4105587  51.5792227  30.5932450  78.0661678  50.7100010
  29.5188093  78.0615759  51.7760897  78.6250162  69.5546532  50.9360218
  77.9077053  69.3800259  50.3267622  79.0707159  70.3180122  50.5687809
  68.9854765  34.2319226   2.9751155  69.5262718  33.5871077   2.5190610
  69.4844055  35.0467634   2.9173535   7.2549486  77.8999186  44.5505905
   6.9833148  78.4140253  45.3109503   8.1518573  78.1853580  44.3764925
  36.2725139   5.4108328  48.8981819  36.8431520   5.5715895  48.1466770
  35.5941033   4.8247647  48.5627508  21.9153500  15.9058654  60.9560585
  21.4009118  15.1057541  61.0628605  22.7670860  15.6027877  60.6415462
  18.5646403  71.9175005  61.0283184  18.2386363  72.2099400  60.1771832
  19.1144371  72.6386023  61.3348579  81.8483162  72.8897333  48.1899643
  81.7883301  72.5781393  47.2868919  82.4714088  72.2951221  48.6076069
  82.3657799  56.8693495  46.2142324  81.7681122  56.1674023  45.9567499
  82.2455406  56.9512939  47.1603060  74.7821665  71.7746067  26.2768197
  74.8281431  71.1688471  27.0165324  74.4808769  72.5983191  26.6601658
  39.4762874  48.2768679   7.6716506  40.2796888  47.9162407   7.2965145
  39.7488403  49.1017580   8.0735159  56.9284344  59.3297386  16.4062250
  57.3273706  60.1707029  16.6295230  56.2841225  59.1791153  17.0978928
  62.5306368  19.6770406  59.1979456  62.4335194  19.7624230  58.2495213
  61.7454910  19.2063916  59.4777012  43.4388542  53.4450102  11.5426445
  42.5014305  53.5114813  11.7244565  43.7296486  54.3521786  11.4493227
  63.5992765  36.4922094   1.1182559  64.3066597  36.7368793   1.7148998
  64.0344286  36.3448501   0.2785183  15.0646710  17.5520718  46.1004543
  15.8385086  17.6570070  45.5469227  15.4154932  17.3310804  46.9631910
  42.1332312  23.8445067  64.1998816  41.2212229  24.0115714  63.9620447
  42.0921898  23.0965757  64.7958231  38.0594158  37.5923514  62.4319983
  38.7136436  38.2664847  62.2482538  38.5717130  36.8036366  62.6100731
  23.0946851  12.9767263  50.8151913  23.5570312  13.3417213  51.5696716
  22.6350927  13.7236452  50.4316282  76.2029219  57.3467112  19.3408740
  76.8202686  57.1007109  18.6519611  75.9910631  56.5220737  19.7782779
  85.4684925  68.2111835  17.6293707  84.6976376  67.6454496  17.6737356
  85.1376438  69.0838909  17.8418601  76.6453648  36.0372424   7.5696719
  75.7714367  35.9626842   7.9529780  76.6730309  35.3524590   6.9014370
  15.3514373  63.4231091  43.6418676  15.7944572  63.4128618  42.7934217
  16.0381973  63.6526203  44.2679024  42.6164818  67.2281027  64.1759396
  41.6815519  67.3552370  64.0147877  43.0319214  67.4119234  63.3334112
  62.2498798  27.9225612  12.2475553  63.1263447  28.2139945  11.9963324
  62.3906708  27.0733404  12.6661646  52.2008133   9.4427365  59.4466162
  51.9880056  10.2947426  59.8274469  52.4258184   8.8940185  60.1979589
  52.8091288  60.0255632  12.6849926  52.2121048  59.4388676  13.1493068
  52.3240566  60.8468962  12.6053357  63.4721041  58.8694334   8.7290478
  62.7296400  59.0185308   9.3144977  63.0801153  58.7968969   7.8588086
   2.0048431  60.2207994  65.4186010   1.6479346  60.7100248  66.1598873
   2.4038740  59.4453669  65.8132076  71.4182806  48.6550283  11.9480050
  70.5668211  49.0705824  12.0842505  72.0269632  49.1801405  12.4676204
  62.3526335  57.9332685  12.7112937  61.4816332  58.3296728  12.7325845
  62.8681517  58.5174990  12.1552873  59.3195486  76.7102242  23.4495902
  59.9811459  76.4847708  22.7956080  59.1413164  75.8866930  23.9037466
  22.3907709  73.4879589  69.4552994  21.6119623  72.9529905  69.3020105
  22.1137571  74.3798780  69.2455912  47.6172352  16.9013596  54.1768694
  47.2382021  17.5610685  53.5960531  46.8906164  16.3104618  54.3746090
  14.4539535  20.0226593  64.1691160  13.9186943  20.4064274  63.4745264
  14.5126772  20.7093716  64.8333502  45.7695484  20.2218151  59.3852615
  45.8194017  19.5661211  58.6896944  46.5346432  20.7794237  59.2440510
  44.7340488  80.8979893  31.5481710  45.0538301  81.1336994  32.4190402
  43.7891674  80.7936096  31.6601276  31.6935349  10.0563836  56.5465021
  32.6079369   9.8622537  56.7524433  31.3468742   9.2349702  56.1981678
  61.4995480  56.0180092   6.0924459  61.0175991  55.8818436   5.2767140
  61.7756414  56.9338608   6.0574955  41.4697313  54.2387581   8.9539379
  41.2630892  53.7815666   9.7691095  40.7782412  54.8946667   8.8652778
  60.9253502  54.4136190  14.3795002  61.7233229  54.9163675  14.2160439
  60.8545208  54.3801928  15.3334904  49.1582251  51.9006300  19.8646426
  49.1835546  50.9446812  19.8227131  49.3233347  52.1044540  20.7852006
  51.3574171  62.0707321  21.2936330  50.5692482  62.6108170  21.2358809
  51.2005758  61.3518906  20.6813407  75.1751518  68.9688301  64.5526934
  75.0208521  68.8668680  65.4918575  76.0904789  68.7163687  64.4315577
  66.8659735  53.9259863  14.3882310  67.1995640  53.0290794  14.4107151
  66.4611197  54.0093756  13.5248816  12.5136399  39.0557790  56.6427517
  12.4065030  40.0068235  56.6590595  13.4207535  38.9216137  56.3682032
   2.2781798  55.2992868   3.9572051   3.1797016  55.0929356   4.2040029
   2.0075631  54.5664597   3.4040639  57.5883913  13.4220397  69.1657352
  57.8393364  13.6726737  70.0548029  56.6958427  13.7532854  69.0664148
  25.6852460   8.0243391  54.2951870  25.6306577   7.3706621  54.9922943
  25.1773643   7.6498842  53.5754156  80.2841759  61.0723066  13.5149729
  80.6348133  61.3706017  14.3542016  79.7341347  61.7957544  13.2144618
  59.8340835  59.5292082   0.2499301  60.5103220  59.0407780  -0.2195065
  59.1091170  58.9103928   0.3378207  64.0061188  42.6898527  14.3501198
  63.7981606  43.6225986  14.4045961  64.9398851  42.6644516  14.1411507
  37.8807569  19.5555961  59.3580818  37.0555449  19.4046855  58.8971186
  37.9051161  20.5015826  59.5021248  51.3529158  57.8445148   9.9875134
  50.8884716  57.1634960   9.5009595  51.1247826  57.6827145  10.9029412
  77.9513884  47.6456833   5.9956264  77.2245264  48.1794357   6.3165808
  78.1371212  47.9935503   5.1234317  14.5137632  31.8578768  60.4007816
  13.9198613  31.7635727  61.1455107  14.9372768  31.0030484  60.3224325
  56.1693001  49.2560530  13.0993462  55.7021809  50.0022268  12.7235055
  56.9170952  49.1234732  12.5167155  64.0308285  56.7744350   0.0938515
  63.3865786  57.0305300   0.7538403  64.8338842  57.2247553   0.3556511
  65.6479597  44.8882675  18.9822292  66.5779829  44.7062826  18.8474047
  65.5812836  45.8419943  18.9353967  70.0404549  57.3841858   4.4612521
  69.5868492  58.1436968   4.0957072  69.5109224  57.1297979   5.2169710
  23.0189109  76.5615368  49.8883724  23.4026623  77.1705770  49.2574692
  22.0914316  76.5269661  49.6542406  55.6946911  41.3399428  -0.0011342
  55.0932707  41.3488162   0.7434756  55.6028642  42.2081679  -0.3935426
  55.0950289  64.6819353   0.3438507  54.2982149  64.9292135   0.8130764
  55.3191805  65.4563236  -0.1722027   3.3579630  44.9981022  13.9467502
   4.1489121  45.2971792  14.3952882   3.4798753  45.2723122  13.0378056
  47.6897526  47.1359921  20.7952452  47.5309467  47.7337980  20.0647402
  48.4721804  47.4834824  21.2233615  78.6190462  44.0951729  14.1282845
  79.0175247  43.2892084  14.4567156  78.8827515  44.7664642  14.7576165
  20.4667902  69.6064806  69.2262363  20.0443840  69.1929436  68.4733820
  20.6278777  68.8863707  69.8359299  59.3336010  39.0180826   5.6120223
  58.6642742  39.6981382   5.6878614  60.1380682  39.4389200   5.9152800
  29.8437047  20.5605626  57.0298910  30.3168702  20.7723522  57.8345633
  29.0777206  21.1343980  57.0443630  52.6077604   2.4510208  61.6315222
  51.9884396   1.9831333  62.1916628  53.3822203   2.5732565  62.1806145
  53.5059500  63.0191088   3.2485443  53.4575653  62.2837019   2.6377556
  53.1543684  62.6727962   4.0687209  52.0960188  33.5396075   1.4576060
  51.5768909  32.8618789   1.0246783  52.8852749  33.0851531   1.7521922
  74.7142220  22.2034502   9.0819001  74.4549704  21.3317561   9.3805188
  74.5902729  22.1782827   8.1330925  79.2638159  78.4006310  60.4484653
  80.0468159  78.0737305  60.8915091  78.5866117  77.7554178  60.6517506
   5.8306265  75.4843760  63.0963135   5.4273295  76.0445356  62.4331331
   5.4742151  75.8011246  63.9263010  62.8143930  54.2366743   2.0881124
  62.3762035  53.7864828   1.3659289  62.2227383  54.1275120   2.8326026
  54.2484760  56.7489529   3.5927600  54.3695164  56.5577221   2.6627001
  54.9534988  57.3605156   3.8052723   6.8299431  74.9738884  54.1215181
   6.1602730  74.8431349  53.4501934   7.0693737  75.8974409  54.0443039
  13.7453330   5.8170468  64.4059896  14.0972531   5.4290062  65.2071190
  13.2071006   5.1253253  64.0212059  13.3368754  11.4909446  68.6508656
  14.2577350  11.4917684  68.9121103  13.2928348  12.1151853  67.9265594
  50.1979637  45.4760695  27.0403862  50.4067612  45.9384108  27.8520966
  50.2963829  44.5496845  27.2602844  23.7945962  78.8945055  51.6097784
  23.7257385  79.5875502  50.9531355  23.7743425  78.0822468  51.1037588
  71.7817020  28.7439966  10.0637591  71.7399693  28.7062025   9.1082168
  72.5883150  28.2794023  10.2868330   9.4203770  74.2277765  64.4900417
   8.5135150  73.9652491  64.6478844   9.3777502  74.7781467  63.7080526
  40.2925968  14.0323091  48.4018040  39.3994570  14.0200877  48.7458706
  40.4561567  14.9519646  48.1927252  79.9418831  32.7736521  18.1401539
  79.4374657  32.4342561  18.8794827  79.9873018  32.0416760  17.5250268
  18.7977493   0.2200943  62.6628828  19.5979393  -0.2035041  62.3522472
  18.9945126   1.1563133  62.6310968  24.3507242  19.3990946  55.1517248
  24.6527267  18.4965384  55.0496483  25.1532197  19.9092555  55.2611208
  52.7409935  61.8303680   5.6973827  53.0171967  60.9196377   5.7999396
  51.9046450  61.8805742   6.1602396  75.9726286  59.2070246   2.1118522
  75.5320406  60.0448608   1.9699408  76.6497183  59.3993235   2.7605453
  79.0070152  11.6718781  61.1327171  79.2650509  10.8158731  61.4746332
  79.7712278  11.9740069  60.6418657  74.3719387  42.6626396   9.8648500
  75.0758791  42.9911709  10.4241049  74.0643549  43.4340668   9.3888980
  61.4032698  59.3851280  10.1677501  60.9025002  59.3481588  10.9826696
  61.2105465  60.2506542   9.8072553   2.1467838  79.9192762  64.4576025
   2.4759500  80.3246784  63.6554003   2.2201455  78.9783335  64.2979813
  73.2537174  76.4847660  12.9930246  72.7777004  75.6615782  13.1025815
  74.0299845  76.3877916  13.5446060  56.1630630  54.6004772  24.5493865
  55.5091000  54.1639423  24.0034938  56.4918327  53.9113140  25.1266122
   6.2650192  74.7188997  48.3942699   7.0984542  74.2506552  48.3456135
   5.6206268  74.0965891  48.0570412  76.3680601  43.7788200   2.0768471
  76.6878843  43.7663794   1.1747447  75.4188824  43.8699245   1.9932160
  24.3408966  15.2591920  58.8724136  24.2253852  15.9343779  58.2038212
  25.1867414  14.8609591  58.6670160  27.7776885   8.6942178  62.9439020
  28.3718276   9.1798693  62.3717356  27.3342681   9.3695033  63.4573221
  63.1964030  50.8607951   0.0461776  62.9392852  50.4919562   0.8912093
  63.0635156  50.1467088  -0.5772441   1.6200501  50.1881361  23.6853290
   1.5095022  50.8175421  24.3979740   2.4289773  49.7234058  23.8995552
  40.2374649  80.2464962  14.7705805  39.3235111  79.9630022  14.7940159
  40.6219006  79.8817015  15.5676818  58.5340643  41.3692141   9.9636948
  58.1975698  41.7739296  10.7632005  58.0658579  40.5366755   9.9013227
  34.8892164  20.1839471  50.7218504  35.3697395  20.1390028  51.5484762
  34.6043229  19.2843568  50.5612040  84.5455456  49.6544409   6.0899633
  83.6965942  49.9134874   6.4483136  84.4729137  48.7086391   5.9618294
  28.9345813   1.0708388  59.8824453  29.6588492   0.8923343  60.4822779
  29.2951989   0.8968013  59.0130186  44.3580580  42.3235655   7.2251511
  44.6148586  41.4014626   7.2288209  44.5704317  42.6278257   6.3427931
  49.2802334  52.6672363   6.2505686  49.2568302  51.7894363   5.8695847
  50.2111483  52.8865194   6.2899113  53.4315252  31.0603142   5.3928900
  52.6472807  30.7299590   4.9546474  53.9129686  31.5220404   4.7064120
  81.2328815  35.1179338   2.6781166  80.4310989  34.6500969   2.4446478
  81.8312263  34.4332743   2.9772237  62.4332047  36.4004207  15.9648752
  62.1848059  36.7941833  15.1285255  62.4954367  35.4634333  15.7793689
  72.7889776  47.8252983   3.5227540  72.6880789  47.8948927   2.5734341
  72.9950285  46.9029760   3.6747375  56.4293337  58.1206608   8.3426094
  55.8831978  58.8825417   8.5362691  57.2955608  58.4862900   8.1631857
  77.9003572  68.9302301  58.4186316  78.1161451  69.4559336  59.1888952
  77.2256041  69.4355106  57.9651642  51.4548874  12.5999320  69.5270586
  50.5421448  12.8806233  69.5930004  51.9450617  13.2628512  70.0133705
  57.7506876  41.9813967  12.5230086  56.8002892  42.0942545  12.5074577
  57.8979158  41.2767363  13.1538880  82.4621868  67.7106142  17.4932075
  82.3945332  68.4730482  16.9184506  81.5552044  67.4488831  17.6516676
  47.4061918  48.6721802  18.4601796  47.7312660  47.9985619  17.8628552
  47.5808573  49.4976473  18.0081475  61.2075520  60.7811165  16.9463289
  61.4653111  60.6802559  17.8626382  60.2690077  60.9660244  16.9804931
  24.4122982  11.3698518  66.2260485  24.2532587  12.3120892  66.1701393
  24.8926854  11.1600971  65.4251337  25.0099254  14.5944178  68.8392878
  24.4686937  13.8404584  69.0734768  24.4920540  15.0680673  68.1883669
  22.7740908  56.5121222   6.2663293  22.2299838  57.0585489   5.6992352
  22.2358108  55.7407761   6.4438283  63.4061480  44.9791718   1.5500982
  63.1625986  45.1975536   0.6505278  64.2022419  44.4550228   1.4621787
  36.7874575  19.5883560  66.6742229  36.5294695  20.4397869  67.0274019
  36.0312891  19.0236557  66.8340826  12.6468003  14.0454674  61.3152742
  12.5318539  13.1083238  61.4726973  11.7689848  14.4142771  61.4135122
  37.8648663  23.3058929  69.3340826  38.5187197  23.6273146  68.7132788
  37.4173260  24.0946364  69.6403885  26.7781544  21.0395837  70.2975798
  27.1418262  21.1443400  69.4183731  26.3446593  21.8736196  70.4784060
  45.5937433  23.8456130  69.6262980  45.8969593  24.0512156  68.7419796
  44.9592638  24.5333815  69.8279047   7.5891256  53.9751005  55.5857801
   7.5141901  54.8943949  55.8417273   8.2134092  53.9786148  54.8601818
  69.5361233  22.3434234  25.6960917  69.8896360  22.4333262  26.5810633
  69.9355602  21.5415502  25.3589296  22.2951078  20.4431438  64.0607548
  22.0586753  19.5156538  64.0509701  21.4673805  20.9028125  63.9200401
   4.4161111  29.0454507   6.4837390   3.8741612  29.4085288   5.7832420
   3.7989134  28.8563800   7.1905279  13.2373524  78.7712383  63.5786676
  13.8918889  79.4179964  63.3150101  12.6750195  78.6726522  62.8103638
  22.5518608  25.0213480  58.2418108  22.9684734  24.6651602  59.0265369
  21.6324401  24.7676420  58.3226204  49.8299932  60.5859900  10.5376947
  49.8936939  59.8191452  11.1070132  49.5021868  60.2411032   9.7071356
   8.2317859  72.5046873  67.7596760   8.1268930  72.5534964  68.7098598
   8.6379415  73.3377790  67.5204420  36.8921709   5.1855665  51.5768147
  37.1519423   4.2708746  51.6867638  36.5711308   5.2368110  50.6765127
  36.3320851  19.3653119  69.9105215  36.7777872  18.5333157  69.7512627
  37.0112491  20.0283813  69.7868013  49.2916489  14.2549229  60.4656267
  49.3792439  14.3375099  61.4152241  49.8113585  14.9774730  60.1134157
  54.2563009  42.2116899   7.4336535  53.3569288  42.0557117   7.1454912
  54.7952795  41.9578600   6.6844523  18.3430421  35.2787614  69.8458242
  18.6369550  35.1696086  68.9414263  17.5483787  34.7484493  69.9050760
  41.9449663  21.9936252  66.2063408  42.2050858  22.5000072  66.9758511
  40.9922504  21.9292426  66.2728214  43.6358929  25.6964445  65.5184698
  42.9213142  25.9957314  66.0806465  43.2484245  24.9992228  64.9893379
  57.2776270  52.2185612  14.3557489  57.2998953  51.3334608  14.7195256
  57.5778913  52.1140623  13.4528899  18.5279703  16.3038063  56.3854265
  17.9017913  16.7437410  56.9603968  18.5123050  15.3897214  56.6690397
  56.4151907  35.5907822  16.6203856  56.2577391  35.0413966  15.8525217
  56.7886686  34.9942636  17.2691655  55.9012318   5.2097446  64.7396660
  55.9673882   6.1473393  64.5586395  56.7527676   4.9765319  65.1094294
  26.1528063  11.1001062  64.2369223  26.6360855  11.8132901  63.8197422
  25.7989120  10.5916238  63.5072422  49.0990353  69.7459602   1.3179882
  49.2783642  70.6622219   1.5290333  48.8005972  69.7636032   0.4086721
  36.6889739  21.6367793  61.5550280  37.1508718  20.8640099  61.8801594
  35.7860327  21.3429356  61.4342499  68.9215708  62.3999214   5.2190590
  69.3590879  62.7324581   4.4353330  69.5629215  62.5180292   5.9197384
  49.5141506  55.5272627  10.3354132  50.0967741  54.7957516  10.1312745
  48.6336660  55.1775169  10.1988053  52.6312971  40.5856895  17.2874737
  52.3646975  40.6518745  16.3705349  53.2896852  39.8909378  17.2959292
   4.9676532  76.6072845  65.6629133   4.0136135  76.5834761  65.7368946
   5.2815074  76.3789701  66.5379000  32.5563097   8.7801856  43.3465052
  31.8629932   9.4324464  43.4470034  33.3458185   9.2191213  43.6631203
  75.2869844  54.5467043  18.0242646  76.0959959  54.5125628  17.5138044
  75.5470800  54.2731762  18.9039028  53.6489582   7.6038760  56.8483734
  52.8982782   7.0380706  57.0288610  54.3990088   7.0093644  56.8340397
  64.7659826  67.9644394  17.5277686  64.7943068  67.1171236  17.9721606
  65.1133680  68.5834312  18.1699526  44.9383545  20.2070427  53.2465744
  44.8672056  21.0690665  53.6565542  45.5574465  20.3340936  52.5276756
  78.1510353  63.2331753  15.4058218  78.3187151  62.8185749  16.2521219
  78.9677143  63.6856461  15.1947808  28.9353657   9.5707512  53.4764147
  28.1456232   9.0940738  53.2208347  28.8427901   9.6989167  54.4204664
  71.0284948  36.4720273  18.8063705  71.0268402  36.2493300  17.8754377
  70.3095102  37.0962453  18.9045918  10.7111728  78.4913111  67.0473146
  11.0188591  77.8000212  66.4610672   9.7940534  78.6199856  66.8053055
  71.6057158  20.9703684  68.4243488  71.5599489  20.1627898  67.9125357
  70.8664179  21.4930272  68.1137085  14.6260428  63.0924511   0.4807628
  14.9449897  62.6597452   1.2727684  14.4783497  62.3783875  -0.1393475
  58.1445694  41.0348606   1.1549112  57.3338461  41.1680174   0.6637590
  57.9758692  41.4340639   2.0083818  46.4062452  74.5258141  19.0045917
  47.3522043  74.6165371  18.8898540  46.1009073  74.1425705  18.1823218
  65.9740734  61.3836622  18.4635830  65.5920982  61.2394047  17.5978374
  65.3892708  60.9207630  19.0635490  86.0774994  42.1524858   0.3331320
  85.7371902  42.8537178  -0.2224749  85.6131458  42.2581005   1.1634679
  38.3757949  14.5090163  62.9637861  38.4069180  14.5927989  62.0107698
  38.4320569  13.5668898  63.1233644  63.5243559  61.0499907  21.6759396
  62.9516411  60.9689808  22.4386120  63.7359715  61.9825363  21.6333055
  52.9062557  52.7207565   3.0402219  52.7660131  53.4246492   3.6735427
  53.7321138  52.9452944   2.6115361  54.4090176   0.5514517  64.2924547
  54.0718794   1.3898534  64.6081352  54.4213152  -0.0091480  65.0682163
  64.7690964  61.3864422   8.8126332  64.1411877  60.8020735   9.2374521
  64.6966553  61.1792850   7.8809309  45.4860735  51.2665558   3.8040513
  45.9547377  50.6343365   4.3489221  44.6182489  51.3296556   4.2029631
  37.0633459  58.3409643   8.9039725  36.4599895  58.4018707   9.6445692
  36.5303349  58.5666609   8.1416118  33.5228014  21.5482068  65.5968475
  32.8565502  22.0194292  66.0971355  34.3323445  21.6833377  66.0894060
  40.6105423  12.4578071  61.6437483  40.9958887  11.6064560  61.8509722
  41.1916018  13.0922437  62.0633793  26.4737201  77.4640322  64.8630238
  26.4403415  76.5092802  64.8033190  25.6448197  77.7568197  64.4842958
  39.7410417  13.2860267  69.8796558  39.8462915  12.5688219  69.2545366
  38.9435029  13.7341571  69.5979738  49.9726486  58.1910658  22.1408367
  49.7103500  58.3529902  23.0470443  50.9265184  58.2703209  22.1497774
  39.7674346  17.1908844  63.2523394  39.2564964  16.3814986  63.2440758
  40.6179237  16.9336152  63.6083078   6.4451492  37.1588063   1.6935605
   6.6808969  36.4782548   2.3240413   5.5389804  37.3804212   1.9079804
  51.3715458  12.5899458  66.0397148  51.8714762  12.2755492  66.7930126
  51.6252708  13.5085738  65.9503889  81.6750336  45.3814173  17.5548625
  82.1624947  44.6507406  17.9352820  81.8181038  46.1070108  18.1625426
  67.8202343  46.3332224  15.4164732  68.7106609  46.3411093  15.0653195
  67.2714090  46.0862732  14.6721351  39.4753790   6.5656132  57.7090263
  39.3642282   6.1414951  56.8581438  39.5852733   7.4935776  57.5015688
  34.5921397   1.4932083  57.1396494  34.8209238   0.9483221  56.3866615
  34.5342493   2.3802513  56.7846346  65.8398485  18.4917223   1.9726953
  66.7852688  18.5912955   1.8609048  65.4584694  19.1043282   1.3438092
  83.6112976   0.2921339  18.4582257  83.5373974  -0.5338877  18.9361989
  82.7575302   0.7103995  18.5694134  70.7447433  56.3019991  16.4736009
  71.6851807  56.1239147  16.4834130  70.3576803  55.5233145  16.0735202
  83.0273342  67.9091883  68.6485338  82.2580242  67.5448990  69.0863657
  82.9077721  68.8572884  68.7036705  17.8283501   1.9735929  19.9247932
  17.3276234   2.2783050  20.6815338  17.1734881   1.8526559  19.2372167
  30.8954883   7.8013062  55.2927208  30.3034711   8.0665982  54.5888948
  30.9124732   6.8455029  55.2439022  69.8615360  59.6790504   1.8292490
  70.4392624  60.2827454   1.3623242  70.4558325  59.0782738   2.2788170
   4.5415869  69.3819284  27.8060317   3.7405774  69.3213940  28.3265615
   4.4833958  70.2347183  27.3752213  49.2994404  70.2304983   6.8684077
  49.2385674  69.8581171   7.7480996  48.8445377  69.6004009   6.3095897
  46.1748791  32.9665470  48.2304621  46.1993599  33.9195824  48.3162308
  46.3667774  32.6418805  49.1102314   5.1633114  73.8514614  15.2645040
   4.5448023  74.0106058  14.5515168   5.7642943  74.5957184  15.2308321
  31.4468241  15.6251562  58.3030796  31.0590792  15.1489234  59.0373087
  32.2819471  15.9481895  58.6413860  59.5798302  16.9447744  70.2893114
  58.7064838  16.8388820  69.9120998  60.1725435  16.8923187  69.5395279
  38.5507751  14.3170762  50.8487988  38.6009383  15.2391708  51.1007023
  37.6236320  14.0952992  50.9351301  64.8138237  11.6742861  70.3049850
  65.7693005  11.7314780  70.3098726  64.5629597  11.9325161  69.4180679
  81.9588757  64.6347952   0.5345487  81.5676022  64.7678232  -0.3288404
  82.7941322  65.1004887   0.4933095  76.9126177  52.5976944  11.3074827
  77.6148891  53.2277918  11.1461806  76.1758614  52.9224777  10.7898510
  50.4335165  26.8183827  67.8403425  49.5081472  27.0054889  67.9981852
  50.5974531  27.1489596  66.9571257  39.8663259  37.6487899  68.5946989
  39.6968508  38.1353140  67.7879763  40.2646637  36.8294382  68.3010626
  27.6516819  13.3793068  59.6906281  27.4518776  12.4483335  59.7886038
  27.3474407  13.5981703  58.8098526   6.8667835  65.2775526  12.5421691
   6.9832742  64.5132017  13.1064630   7.7393675  65.4490137  12.1880078
  38.0697346  28.6927271  58.6896753  37.8033423  29.1316986  59.4974947
  39.0244484  28.7613869  58.6833954  53.6082172  33.0679488  59.1330957
  53.9463139  33.7808466  59.6750355  52.8704596  32.7170491  59.6319056
  35.5062532  26.5139937  65.8531141  35.1715899  27.2627115  66.3467264
  36.3499784  26.8101120  65.5115414  48.5436106   9.7905964  62.3232317
  48.1537437  10.3765619  62.9719877  49.0597200   9.1713226  62.8393412
  48.1975603  74.0197229   1.4704241  47.8509951  74.7873545   1.0155973
  48.2007170  73.3295250   0.8072116   0.5107500  -0.0729660   4.1099459
   0.8203782  -0.4002968   3.2654241   0.8236076   0.8309526   4.1457647
  71.6855717  56.7569923  11.0719073  72.0884752  57.6176786  11.1864173
  72.1865416  56.1794806  11.6478801  81.4364815  61.4691448   5.7689452
  81.8984795  62.2510958   5.4667175  82.1322441  60.8652639   6.0286897
  75.2473783  76.7758751  57.0729876  75.0566053  76.7323208  56.1360025
  75.9601212  76.1500359  57.2016430  75.1621342  39.4285607   1.7722923
  75.0871563  38.6244249   2.2860785  74.3815136  39.9328804   2.0014770
  66.7857838  29.1774464  48.4648895  67.0414925  30.0751805  48.2529545
  66.5532112  29.2074037  49.3929243  23.0030131  43.1287909  66.9701481
  22.0612168  43.2880974  67.0323992  23.1759167  42.4549341  67.6276064
   1.4847933  62.7407598   4.9830821   1.6071551  61.8956089   5.4154938
   1.2453915  63.3393621   5.6906086  76.0054684  29.1343284  61.9110727
  76.3421059  28.5498309  62.5902414  75.0571585  29.1315818  62.0411873
  16.0089135  14.3941081  18.0047715  15.2531219  13.8475001  17.7897596
  15.8432019  14.6906471  18.8996661  14.6691048   4.1627628  25.3993535
  15.3895187   3.5985938  25.1183748  14.8381746   5.0001079  24.9674964
  50.1606083  63.0916500  23.7170458  49.5610666  63.4746122  24.3574524
  49.6741867  62.3570108  23.3429742   4.5005798  65.3928375   3.5698256
   4.2792553  65.8984089   4.3519044   5.4268157  65.5803156   3.4176084
  57.9408693  32.4992013  69.9396658  58.6915970  32.5861526  70.5270958
  58.3269644  32.3172045  69.0829039  50.9024239  11.6869354  53.8358641
  51.4269781  10.9605503  54.1726685  50.4408598  12.0250511  54.6032429
  66.5484285  63.8169098  31.3741660  67.0499182  63.2279158  31.9379282
  67.1966982  64.1812372  30.7714677  48.8276052   2.2480640  61.4815950
  49.4313955   1.7279342  62.0118141  48.0151176   2.2613682  61.9874811
  82.1964073  50.9216356   6.7506856  81.5862179  50.6804657   6.0537314
  82.0992184  51.8700123   6.8365461  78.4553194  71.9928980  20.1427674
  78.2009172  71.2757206  19.5621097  79.0022707  71.5783262  20.8100033
  79.2684889  49.8520279   7.9851413  79.5905685  50.6890917   7.6507419
  78.3435822  49.8357487   7.7391493  64.0764093  70.2645588   6.1262846
  63.3020782  69.9905968   5.6347632  64.8006916  69.7935438   5.7142258
  48.7307930  35.8055687  46.6212702  49.3198395  36.0051322  47.3488855
  48.1073809  36.5318584  46.6116714  36.8668675  23.5768247  56.3304663
  36.0713196  23.1995106  56.7059278  37.2373915  24.1060448  57.0367718
  65.2555513  67.9521561  12.6152265  65.9707451  68.4893847  12.9559898
  64.8965502  67.5139332  13.3867896  27.7352452  10.7039440  56.2714052
  26.8596721  11.0502648  56.0991716  28.2788944  11.4809990  56.4012671
  34.8068190  13.5636020  63.3413124  35.2915978  12.7521098  63.4919834
  34.1608429  13.3360565  62.6726055  80.9490108  68.3125830  23.8176870
  81.7589951  68.7972355  23.6587524  80.7863140  67.8431511  22.9995227
   2.0258617  10.8683717  16.1499846   1.4685023  10.1578593  16.4674032
   2.4670437  11.1952329  16.9340467  38.0841112  16.9819307  26.6249156
  38.9463711  16.6670036  26.8961334  38.1577516  17.9358745  26.6531754
  69.6507502  66.1994028  36.1206222  69.0559626  65.5920267  35.6806707
  70.5249834  65.8613825  35.9264779  59.8387051  78.2254124   9.1710061
  60.2975512  78.6776829   9.8789203  60.2689981  78.5315561   8.3726609
  55.8854437  71.1727953  16.5321183  56.5802145  70.5151176  16.5006685
  55.9330130  71.6122389  15.6830835   0.9649286  60.9185362  20.1103568
   1.7238012  61.3064337  20.5461097   0.3493855  60.7346106  20.8199406
  23.2525015  36.2276125  62.8897142  22.4204397  35.8704472  62.5793314
  23.7929177  36.2946272  62.1025085  84.0386295  51.6934443   4.2165065
  84.7014523  52.2980118   4.5502526  83.8975716  51.0737514   4.9322706
  71.9849539  33.7210774  15.9319735  72.3610163  32.8944945  16.2345815
  72.7284431  34.2051363  15.5726147  74.1827393   4.3602344  66.2525940
  74.6234941   3.7404856  65.6713200  73.7421751   4.9710026  65.6617451
  65.7335806   3.4148422  41.2021494  66.5307999   2.9252699  41.4046192
  65.6809711   3.4022224  40.2464771  56.7812872  29.5524573  57.9909801
  57.5461912  29.4309950  57.4284840  57.1338940  29.5397830  58.8807774
  37.8418946  27.8161240  65.7385778  38.7600517  27.9292083  65.4927540
  37.4061060  28.5999942  65.4041147  59.2162275  76.9708681   5.8184898
  59.8211050  76.3920593   6.2825269  59.7811317  77.6145411   5.3909445
  85.5945492  47.9771662  11.4962769  86.1715221  47.8153229  12.2426999
  84.9408436  48.5927343  11.8279028  73.5001373  37.4133468  16.6694093
  72.6082659  37.1042991  16.5103662  73.5005569  37.6810074  17.5884259
  47.2068787   5.3796077  51.0386944  47.6200771   5.2495974  51.8922710
  47.8981113   5.1848918  50.4058313  69.7960091   3.2724446  62.2530031
  68.8941765   3.2210854  61.9363117  70.3152323   2.8542364  61.5661669
   9.9423933   9.5703882  68.8454628  10.5630457   9.4014865  68.1365919
   9.5992571   8.7065941  69.0742636  30.2736354  25.1307750  51.4301729
  30.7859612  25.4062939  52.1903372  30.8831692  24.6110821  50.9061337
  50.0581455  35.2378154  51.3325453  49.1537094  35.4099059  51.0706043
  50.2185726  35.8464265  52.0537138  73.1127596  69.6714497  25.5364323
  73.5711241  68.8937855  25.8548212  73.8116121  70.2802944  25.2973771
  46.1701536   0.3826658  54.9681520  46.6865206  -0.3571454  54.6483421
  45.9943247   0.9074380  54.1871691  38.7128234  15.0031757  60.2037334
  39.6580601  15.0288785  60.0550747  38.4642076  15.9197223  60.3235865
  19.6760690  67.0667601   2.8367880  20.5874348  67.3557091   2.7903694
  19.2955661  67.3393345   2.0018312  69.1541433  69.7925472  25.2892900
  68.2914019  69.5785904  25.6444407  69.7018433  69.9365330  26.0609913
  49.4371748  33.2180905  64.2288876  48.8133478  33.8276744  63.8345814
  50.2896976  33.6361814  64.1079044  75.6665277  40.4117727  14.0776801
  76.2242651  40.9300423  13.4975433  74.8675632  40.9310246  14.1686285
  45.2843332  76.5837049   2.7967039  44.4303703  76.8101978   3.1650561
  45.5787134  77.3851538   2.3639870  67.5023890  36.5150857  45.9189558
  68.3574152  36.8249178  46.2175655  67.6660919  36.1688280  45.0417233
  48.1116724   1.3700427  38.3482623  47.7845240   1.8395478  39.1155767
  48.7852335   0.7848123  38.6947489  39.3267488   5.4055738  55.2270699
  39.9386573   5.4897094  54.4958210  39.0349913   4.4946110  55.1916313
  79.9828577  11.2283957   4.9356973  80.5568314  11.2836921   5.6997174
  79.8484039  10.2898014   4.8045659  76.7020559  60.4035902  11.9074452
  76.1132431  60.7190895  11.2218881  77.2163057  61.1723566  12.1539712
  40.6709146  29.3652821  57.8628302  41.0229111  29.3447304  56.9729376
  41.1807060  30.0431800  58.3064508  73.7860107  72.8921843   9.5789516
  72.8334427  72.9818964   9.5507866  74.1041231  73.7744713   9.7702628
  37.2250271  24.2071104  62.5403452  36.9635010  24.8616481  61.8927240
  36.8970275  23.3789849  62.1898317  55.3798103  38.2212734  58.2815218
  54.8163033  37.5692773  57.8648758  55.5336714  38.8754797  57.5999260
  79.6222448  71.0723305  10.5697250  78.6989546  70.8320141  10.6472957
  80.0591660  70.5695963  11.2571752  25.6545520  38.5691929  65.2249146
  24.8390865  39.0702987  65.2130842  25.9214664  38.5243654  64.3067741
  27.7797604  17.2080731  36.3150549  27.9595399  16.7733669  37.1486855
  27.7400041  16.4955854  35.6770802  47.7637577  23.7382865  56.1519861
  48.3393383  23.0107021  56.3877106  48.3242130  24.5126915  56.2011957
  54.0995693  16.7541635  58.9302683  53.8513803  17.1619630  58.1006098
  54.6093750  17.4253321  59.3839931  74.3104553  43.3702660  17.2536504
  74.7017908  43.9523172  16.6022599  73.8679123  42.6964045  16.7376125
  77.4649143  66.7761230  23.1523871  76.5251875  66.6936922  23.3147049
  77.7587461  67.4387121  23.7775826  71.7709541  66.7257357   3.4376562
  71.9280863  66.3119698   4.2863852  70.8541536  66.5316391   3.2426408
  83.3963585  72.0492220   7.3294729  83.9776707  71.3159704   7.1278501
  82.5244808  71.6572189   7.3784381  45.4436493  30.9229851  63.2999706
  45.2173138  30.1199579  63.7691689  45.6268644  31.5602112  63.9903355
  68.3095551   5.3372186  11.2026131  68.4452820   4.7557667  11.9507599
  69.1800022   5.6848592  11.0084438  56.8674517  26.4926028  55.2561712
  57.7103853  26.4038658  54.8114061  56.9008350  25.8484674  55.9634209
  54.9909353  35.2846599  49.3244457  55.9389973  35.1714492  49.3922377
  54.8710299  35.8476710  48.5596752  52.4014807  70.7611895   1.9811447
  53.3354616  70.6884193   1.7846240  52.1562910  71.6293049   1.6610014
  71.0752296  78.0367756  14.2578697  71.4164591  78.9014482  14.4861948
  71.8439674  77.5441599  13.9704502  71.0467720  65.8102036  15.9812427
  70.7566357  65.6998158  16.8867064  71.9033813  65.3841543  15.9505880
  26.4649820  57.8734589  65.9858274  27.3866701  57.7899122  65.7414055
  26.1494303  56.9715261  66.0421848  41.3265085  15.6349170  59.5833015
  41.9102001  16.0144997  60.2401543  41.1024618  16.3678288  59.0098286
  77.9880619  62.8871202  12.4964380  77.9021692  62.9496336  13.4477246
  77.3267460  63.4896851  12.1561313   4.9201325  60.7692289   9.5589697
   5.1139277  61.1248493  10.4262698   5.4319525  59.9617624   9.5113552
  49.9028826  65.4771805  15.8620226  50.2097750  66.3632202  16.0543346
  49.1006231  65.6061220  15.3560734  21.0767722  51.8119287  60.8537149
  20.1855087  51.9033718  61.1906433  21.0131836  51.1232519  60.1919651
  61.0968447  32.8640032  52.1889019  60.4764032  32.1373129  52.2455263
  60.6139421  33.5566545  51.7380476  73.3473921  63.5639858  13.5173309
  73.9666128  63.7422037  14.2251730  72.5263977  63.3569145  13.9637840
  42.4549913  17.7409756  69.7517538  43.0203629  17.6984513  68.9805365
  42.4576998  16.8494427  70.1001692  63.4126759  21.3348365  65.8624172
  63.0523777  20.8684611  65.1081562  64.2160511  21.7379808  65.5333328
  48.1910133  13.4969056  67.5176716  48.8148117  13.4974539  66.7916489
  48.6442947  13.9583373  68.2232523  51.4188671   2.9006279  59.0429592
  51.7863560   2.5163057  59.8388720  50.5488205   3.2034606  59.3028593
  64.6738958  17.9636574  68.3253717  65.4093504  18.5572767  68.4768963
  64.6451283  17.8557491  67.3747110  75.0424767  38.8037848   5.9400862
  75.2506924  37.9400706   5.5838907  74.3009949  38.6491156   6.5253335
  58.9824533  38.6265278  68.1179333  58.6003494  38.1194282  68.8342237
  59.7173214  38.0942941  67.8130817  55.5912733   3.5471132  47.8143215
  56.3764954   3.2081476  47.3844814  55.6698608   3.2542291  48.7222147
   8.7816882  66.4933729   6.7017174   8.2107723  67.2570181   6.7861587
   9.6074766  66.8470716   6.3712573  49.6481562  37.1523690  64.6353579
  49.2114115  36.7791486  63.8697243  50.5538273  37.2830677  64.3544579
  37.2476339  43.3011818  68.0502272  36.9853687  42.4791956  67.6357508
  37.3782563  43.9064693  67.3203039  48.2249832   1.2271708  58.9063406
  48.4307623   0.3006995  59.0309906  48.3725262   1.6229656  59.7653008
  35.2669191  10.2570367  54.3178511  35.2353215   9.3033415  54.2423534
  34.4027543  10.5490303  54.0277004  19.2341018  43.5381365  62.7344656
  19.5009589  43.6340570  63.6486959  19.7573662  42.8062344  62.4077511
  40.3245783  66.2284470   6.0856944  40.1244354  67.1595573   5.9897780
  40.9354687  66.0401440   5.3732395  58.9456320  46.6732597  68.3171606
  58.1044054  46.2727880  68.5366917  58.9020157  47.5484753  68.7022877
  70.1969385  45.6811333  14.4955146  70.7429695  46.4341068  14.7215903
  70.6045198  45.3170347  13.7096763  13.7039185  55.3859138   1.5353075
  14.1320097  55.3999996   0.6792867  13.6550725  54.4575739   1.7634222
  34.7438097  17.2420835  66.7078304  33.9010167  17.6895225  66.6321325
  34.9774623  17.0174372  65.8071756  84.9513149  65.9783792  19.4618928
  84.0468025  65.8018827  19.2031503  85.0078869  66.9331884  19.4988489
  84.7868156  51.5440798   0.1000207  84.2174244  51.4989710   0.8681288
  85.6736183  51.4854002   0.4554849  63.0467510  67.7232838  10.6742287
  63.7696314  67.6594925  11.2984133  62.4380732  68.3437014  11.0752606
  66.0449314  26.6895819  66.1252975  67.0014048  26.6684890  66.0946178
  65.8365059  26.7515278  67.0574760  43.0433512  74.5406771   0.7833666
  43.0334568  75.2212524   0.1103529  43.1841898  75.0157309   1.6023397
  31.4019942  25.2294827  66.2021780  30.5876851  25.7268643  66.2779617
  31.3834500  24.6251297  66.9442368  45.7416248  26.9259620  54.2525387
  45.5435085  27.7266216  54.7382545  45.1656532  26.2645221  54.6359205
  27.9080248  13.5083151  52.2651148  28.5226679  14.0448034  52.7657413
  27.2858071  14.1363144  51.8981123  59.7638512  46.1664915  22.3196959
  59.5099640  46.6856432  21.5566421  60.6806612  46.3960791  22.4712992
  62.0160103  59.9813938  19.4343019  62.9626179  59.8755169  19.5289218
  61.6679955  59.0919542  19.4977248  31.9149852  69.0568590  48.4334373
  32.0033813  69.9335480  48.0594969  32.5584197  68.5288572  47.9607487
  65.2027082  36.4634585  60.2948141  65.7179499  36.0094762  59.6279860
  64.4339848  35.9077048  60.4230118  36.0871315  21.8969297  67.7439833
  36.7580819  22.1228218  68.3882093  35.4714680  22.6293063  67.7725124
  65.2741575  67.7302837  22.4917340  65.3863287  67.3992825  23.3828497
  66.1622524  67.7677917  22.1366048  56.2180948  23.7590885  61.5701008
  56.8840790  24.4115829  61.3534355  56.2356949  23.7070751  62.5257206
  29.3735194  18.6232710  51.7224312  29.0821457  18.7358403  52.6272297
  30.2339673  18.2106829  51.7974710  48.1673479  41.1160803  66.9591379
  48.1989050  40.1716566  67.1117926  49.0415764  41.4262152  67.1953011
  70.3580427  76.3056993   9.2539448  69.5379400  76.0400009   8.8379282
  70.0962162  76.6240549  10.1178479  15.0031149  67.2116804   0.6256384
  14.1837978  66.7294741   0.7371153  15.2439296  67.4827528   1.5115061
  76.7217255   7.7202219  68.9038944  75.8857012   7.3830110  68.5820580
  77.2923374   7.7189094  68.1353712  78.0716276  49.2576694   3.6414480
  77.8568840  49.1706514   2.7127153  77.5244713  49.9811840   3.9470279
  54.0639544  16.4041960  63.0765247  53.3280659  16.5652549  62.4859667
  54.7776318  16.1299109  62.5006199  52.7765894  65.6047678   1.9037829
  51.8733501  65.8816147   2.0578809  52.8715086  64.8014736   2.4155849
  51.6011095  78.4117079   3.1108680  50.6914616  78.1598520   3.2700798
  52.0692587  78.1273746   3.8958648  43.3364916   2.0805977   1.7437837
  43.0426455   2.1586794   2.6514119  43.9632320   2.7954870   1.6325988
  82.8973198  68.4800243   2.4785116  82.9537392  69.3316174   2.0451044
  81.9926071  68.4275866   2.7866855  67.2396374  59.4129705   2.9618999
  68.0768919  59.5089149   2.5079980  66.6517782  60.0188494   2.5107205
  62.9462433  79.2489767   7.7688944  62.5934029  79.9127674   8.3614469
  63.8817692  79.2217064   7.9696077  31.7566419  26.0997200  56.0036516
  32.6695108  25.9493756  56.2492085  31.2495875  25.7001972  56.7104149
  85.7337666  59.0179682   4.5044008  86.2946224  58.9297390   3.7337562
  85.2844238  58.1754494   4.5713305  74.2554045  60.1174164  13.8753092
  74.8031950  60.5521297  13.2217193  73.9730406  60.8222151  14.4582021
  53.7812185  16.6861856  67.5283003  54.0685749  16.1406779  66.7961264
  52.8256416  16.6361380  67.5036716  39.6029186  23.1788397  27.9429293
  40.1338482  23.1392932  28.7384033  38.7754369  23.5676575  28.2263494
  10.0269723  50.4452276  22.9789639  10.6395507  49.7937012  23.3202767
  10.2714062  50.5449343  22.0588851  85.2965736  43.5579062   7.5775880
  86.2002087  43.6116171   7.2664773  85.3397751  42.9813480   8.3404416
  74.3488693  80.3174973   9.4836223  73.8055277  79.8084736  10.0852084
  75.0457668  79.7154808   9.2225718  79.6825218  77.0411873   6.0836196
  78.8180113  77.1295738   5.6823164  79.8043299  76.0971546   6.1845905
  66.4916468  44.2262459  53.6833429  65.6856012  44.6286869  54.0067005
  67.0812750  44.2316914  54.4373608  41.3907909  42.7483797  64.9298239
  41.7949295  42.3689222  64.1494942  42.0918655  42.7592134  65.5814457
  57.9544830   8.0019891  61.9047213  58.8159943   8.0632818  62.3173618
  57.8850603   7.0877314  61.6298676  46.5385771  24.4753242  66.9723511
  46.6004848  23.7315106  66.3730669  46.2840128  25.2110505  66.4154482
  70.2172613   1.2567419  21.3097763  71.0005474   1.7992491  21.2182307
  69.8251104   1.5397397  22.1358275  47.5438881  29.4096184  62.5019693
  46.7906332  29.8725700  62.8687286  47.3683119  29.3736291  61.5616989
  12.8209758  69.9708414   3.8448697  13.0508006  70.0362015   4.7717685
  13.1719112  70.7710695   3.4540886  43.3073378  22.6173377  61.9471788
  42.9468060  23.3004904  62.5124645  43.3266687  21.8353939  62.4989271
  39.6371770  43.4326744  69.4036102  38.8683057  43.4330654  68.8334608
  39.9837971  42.5428772  69.3376684  39.8735142  18.2582104  69.0820742
  40.7809591  18.1285715  69.3577051  39.5884609  19.0393662  69.5561743
  83.7596512  74.2087221  52.5037861  83.8522911  75.0477648  52.9550695
  84.2677212  73.5944080  53.0336142  34.2367768  36.7898631  64.9860573
  34.1023707  36.9145894  65.9255314  33.3771110  36.5320659  64.6532631
  80.9061337  54.8720837   3.8173258  81.7524624  54.5260954   3.5340458
  81.1167049  55.7062674   4.2368913  22.8273821   8.7208045  59.9987984
  22.2366381   9.4067317  59.6877432  23.6870837   9.1406131  60.0288773
  75.0015831  67.3992538  18.9389610  74.5487499  67.5834990  19.7618985
  74.4066477  67.7200270  18.2611823  50.6678200   5.8854818   5.9409922
  50.1031876   5.2676666   5.4765302  50.4628754   6.7359447   5.5524802
  25.3666663   3.7620321  15.6598473  26.2986970   3.6467433  15.8449340
  25.1986599   4.6864071  15.8429790  42.6856327  28.6460161  70.3288698
  43.2006502  28.6118603  69.5227528  42.4227571  29.5631361  70.4064608
  15.5814517   2.9804593   2.6407668  15.5087686   3.8555169   2.2596851
  15.0069606   3.0040163   3.4060365  69.3457317  76.5654516  11.9253099
  68.6740160  76.2372494  12.5230646  69.8512030  77.1858978  12.4504507
  36.0068941  32.3315907  63.4593964  35.5367947  31.9828010  62.7020407
  35.5781507  33.1674051  63.6433125  59.8702145   3.7255475  55.6166553
  60.5263472   3.0596668  55.8223915  59.0378523   3.3292648  55.8742714
  55.2437592  54.6913624  14.4191229  56.1085033  54.7491837  14.8254585
  54.8313808  53.9369392  14.8398638  73.5705948  43.6540318   1.5409909
  73.7487841  43.6077452   0.6016622  72.7004194  44.0483332   1.6005595
  31.0361528  29.2302346  61.9619608  31.9044209  28.8396144  61.8631697
  30.6513929  28.7728190  62.7095985  58.7041712  33.0127335  54.5645714
  58.6264038  32.1621251  54.1325426  57.8939962  33.4703708  54.3400383
  63.4591866  23.9169574   5.7949430  63.0873680  24.3235922   6.5776515
  62.7013302  23.7196469   5.2445310  54.9520063  40.1425600  69.7051096
  54.0251064  40.1939917  69.9384403  55.4093981  40.1153469  70.5455160
  59.6739340  73.1529522   8.5273725  58.9373875  73.0024099   7.9348600
  59.4738436  73.9876842   8.9509517  78.3759880  67.0069504  11.4623618
  77.5659466  66.5783930  11.1859584  78.1379461  67.9289341  11.5599108
  57.7462959  71.3248062   2.9329804  58.2488537  71.6544914   2.1880108
  57.7443027  72.0483923   3.5595998  78.7939787  12.6255441  51.7058659
  78.9904213  13.3914840  51.1664391  79.4330740  11.9683337  51.4304256
  74.9863386  76.8291759   5.8243090  74.8970079  76.0685778   5.2500808
  74.2746973  76.7360306   6.4576495  41.8423605  15.6009579  65.0664616
  42.3122931  16.3937140  64.8077440  41.6490412  15.7294166  65.9950924
  52.4494457  40.7969141  64.5108795  53.3597803  40.9024715  64.7872448
  52.0172024  41.6012955  64.7978783  70.3892660  43.8049221  16.5209424
  70.1228142  44.5568562  15.9919536  70.6952953  43.1599140  15.8833361
  22.7392173  20.1816201  57.3779964  23.1130528  20.0812745  56.5025520
  21.9023347  19.7189581  57.3355389  13.1012058  11.4350140   4.9381703
  13.3751297  11.8322861   5.7648337  12.8807688  12.1782482   4.3767044
  11.9821286  16.9685042   6.6217250  11.0692608  16.6822147   6.5910167
  12.4520624  16.2294364   7.0079547  70.8822775  54.0482855   1.0858973
  70.1387739  54.0144253   0.4839951  70.4894495  53.9783478   1.9559701
  52.4926710  27.2699857  53.9083862  52.4290562  26.6882730  54.6658754
  52.2028351  28.1216264  54.2354012  59.5341110  34.2172360  16.2172854
  60.4482460  34.4996929  16.1889493  59.2203474  34.5069647  17.0739317
  73.1981325  61.1089087  17.4918735  73.9974928  61.3798094  17.0403492
  73.4949350  60.4748487  18.1446445  20.5773211  75.7212973  59.3143272
  19.7863221  76.2367964  59.4718504  20.6327391  75.6528521  58.3611870
  25.3758240  22.2388768  17.8805733  24.7069478  22.3998237  17.2150409
  25.0278234  21.5136695  18.3994198  75.0491381  74.6919394   2.4183984
  74.6828556  75.0182152   1.5964416  75.4614019  75.4579926   2.8176871
  36.3624859  17.9833710  55.3918743  36.7265272  18.8311327  55.1369143
  35.4807854  17.9795003  55.0192881   2.7298790  57.9600382  18.8313961
   1.9074911  57.8533697  18.3533466   3.1111184  57.0822525  18.8509881
  69.7457409  38.5042739  65.1448965  69.6659565  37.6737356  64.6757793
  69.0796185  38.4569573  65.8306599  49.6413708  24.4829559  65.2588034
  50.5660486  24.6837378  65.1142645  49.1815615  25.2884960  65.0223446
  61.3918447  56.3592529  49.8690987  61.4366674  56.7357588  50.7480001
  60.8326006  55.5885983  49.9669027  80.2213192  51.6224718  17.6707542
  80.4549789  52.5150967  17.4160969  79.4946241  51.3908625  17.0923889
  70.6389999  31.1540842  59.3673944  71.2123394  31.7098999  59.8952055
  71.1422110  30.9773111  58.5725641  14.5813513   1.1645964   0.7521234
  14.8668051   1.9458574   1.2258105  14.2056417   0.5992411   1.4269924
  33.8253736  67.7162266  47.1176577  34.5300913  67.2824335  47.5987291
  34.2093372  67.9237509  46.2657547   5.5168831  20.0933075  33.2562780
   5.9162199  20.0477290  32.3875523   6.0184038  20.7670569  33.7153745
  73.2795143  33.9983201  68.5495901  73.9589071  33.5731292  68.0262613
  73.2670927  33.5068154  69.3708706  74.7009277  36.5341187  57.7484846
  74.4881868  36.0114956  56.9752789  75.3013134  35.9840155  58.2516241
  67.9552126  52.3238325  54.7707033  68.3078289  53.1176567  54.3685436
  67.0544004  52.2732019  54.4510031  59.4918013  13.8093007  61.7197847
  59.7017765  14.7427368  61.7487431  59.6158504  13.5078681  62.6197767
  61.9737816  24.3274021  58.6219740  62.2281599  23.4793520  58.2581997
  61.7568970  24.8607087  57.8572702  73.0927038  76.6680050   7.9826546
  73.7137222  76.3445759   8.6353153  72.3206282  76.1126423   8.0908149
  51.8425894  37.5326228  58.4114313  51.9137764  38.4658265  58.6121702
  52.4090815  37.4075103  57.6500750  77.8654289  42.0151997   8.0134219
  78.8032627  41.9879484   7.8237897  77.7925158  42.5836134   8.7801182
   0.7554064  61.0763788   2.4097787   0.3902079  60.6791115   3.2003736
   0.9010193  61.9921541   2.6472268  57.1833849  36.0038066  58.8246822
  58.0603933  35.8445477  58.4757853  57.0019913  36.9184208  58.6083317
  46.2974405  38.7601066  54.1622591  46.2978411  38.0216599  53.5532188
  45.5252171  39.2707419  53.9190531  45.2814102  35.2199578  70.4414225
  44.4671440  35.6753898  70.2274370  45.9210443  35.5683565  69.8203659
  68.7176180  18.9213276  62.4692488  68.6696148  18.9228785  63.4252453
  69.4023561  19.5575178  62.2627878  49.3282557  27.6397491  59.5212030
  48.5720825  27.4211478  58.9765453  49.0838480  27.3467231  60.3990602
  48.2945108  49.7205830  65.0384474  48.5682297  50.6368637  64.9966621
  48.7877417  49.2911625  64.3394852  23.5340405   2.6488063   6.4101237
  24.1410637   2.0229292   6.0151148  24.0052748   3.4818336   6.3947779
  68.3603573  24.3237329  69.3214607  68.5258245  25.2503586  69.1476345
  67.4329185  24.2857862  69.5552444  77.3338509  36.4682364  52.1162844
  78.2089233  36.3463688  51.7480087  77.0298719  37.2954750  51.7427778
  85.7731438  34.6737313  58.7407923  85.0336552  34.9846673  58.2185841
  86.1045170  35.4582930  59.1776991  27.8719807   4.4957191  20.0341678
  28.0885720   4.9018162  20.8734560  28.4677792   3.7494472  19.9683404
  45.5846310  53.5073423  55.6720829  44.8280191  54.0559673  55.4652357
  45.2064562  52.6766777  55.9605455  70.3823614  34.5808482  69.2047119
  71.2312746  35.0227046  69.2232323  69.7904158  35.2161384  68.8019276
  45.4680920  59.6578932  56.1672878  46.2146139  59.0588236  56.1744642
  45.5076551  60.0796032  55.3088999  11.3048482  18.6371386   2.6426327
  11.8254209  19.0912712   3.3052021  11.5836501  19.0237689   1.8125616
  82.5567818  41.6900015  68.2113552  82.5582218  41.1072302  67.4520111
  83.1610394  42.3935556  67.9744720  55.0721931  49.9742556  67.7552509
  55.5461884  49.1482973  67.8519678  54.2916250  49.8675394  68.2989073
  51.1982155  16.7907405  68.3895397  51.4887905  17.0119727  69.2743301
  50.6279707  16.0310709  68.5076475  56.3098907  48.5353327  58.4798765
  55.4950142  48.1512547  58.8034391  56.0319328  49.3092585  57.9899693
  29.7938752  16.5483487   4.0175286  29.4345975  17.3045242   4.4815868
  29.0331578  15.9980249   3.8312846  61.0811901  55.8747149  11.5175915
  61.1844254  55.6392050  12.4396062  61.4267635  56.7653465  11.4577389
   6.4334899  65.1456499  16.0464299   6.6337073  66.0776329  15.9595418
   7.0329672  64.8340893  16.7245078  50.0774813  13.8522148   7.3464555
  49.8840475  14.5918477   6.7704695  50.7621050  13.3646214   6.8884462
  72.0958757  69.5118093   6.7185789  72.5894451  68.8303328   7.1748745
  71.3305712  69.6649790   7.2727287  13.2183933  80.3754807  20.3669810
  12.3675823  80.1337719  20.7329464  13.5547757  79.5640469  19.9866378
  64.6416044  81.3222885   6.4645845  64.9727201  80.4547977   6.6971064
  63.8506556  81.4264488   6.9935244  21.1226439  62.5988197   3.4904516
  21.7297268  63.3344698   3.4097835  20.2602625  63.0071783   3.5664341
  58.8294744  26.7074060  51.7252970  58.7089682  25.8606410  52.1550655
  59.5116711  27.1411920  52.2378111  29.8328185  79.7477388  16.9895327
  30.6632233  79.8590899  17.4524188  29.1641450  79.9220371  17.6518977
  49.6818256  43.6485624  53.7646818  49.3896914  44.5407677  53.5779667
  48.9333963  43.0982542  53.5339451   3.0063397  80.4322243  11.2996244
   3.9479724  80.3030491  11.4130902   2.8634998  81.3541126  11.5139818
  11.9468570   7.6018900   5.8785284  12.2311747   8.2797033   5.2653694
  10.9977937   7.7128750   5.9350431  32.7422714  75.6316757  65.9373045
  32.9928231  75.7671642  65.0234652  32.5311184  74.6996641  65.9921074
  68.4127712  44.4165611  55.6822681  67.8148460  44.0613556  56.3399506
  69.1147327  43.7686110  55.6219149  51.4736748  20.7743430  60.3473711
  50.7053041  20.5502653  60.8723736  51.3986826  20.2255678  59.5666981
  69.0342188  49.2010498  55.5794907  68.9750910  48.2826805  55.3161716
  69.3164158  49.1704130  56.4936352  23.8435960  49.6623182  67.3966837
  23.7695932  50.6024981  67.2329235  24.7860765  49.4985580  67.4305868
  84.7423363  74.7278070  27.9236245  84.9466228  74.0840816  28.6019421
  85.3910732  74.5676422  27.2382641  28.3718848  41.0549450  69.0033007
  28.2999539  41.6075325  69.7815704  27.5258160  40.6110048  68.9457321
   9.7830147  49.7968054  -0.0604899  10.3695774  49.3512917   0.5508136
  10.2254641  50.6221819  -0.2585388  71.6427660  29.7178149  47.1569395
  72.3747158  29.1723585  46.8689203  71.9194317  30.0606656  48.0067301
  31.0306001  14.2424655  52.3240328  31.8340421  14.1478002  52.8356504
  30.6482911  13.3649862  52.3139381  73.4807682  21.4920282  33.2502484
  73.6199903  21.9829416  32.4404025  74.3460131  21.4516687  33.6576223
  20.5566764  78.8350296  13.0025256  19.6338844  78.5840178  12.9615223
  21.0097432  78.0378771  13.2773185   3.7663734  19.7608602   2.1402965
   2.8112367  19.7058463   2.1099798   3.9935935  19.4926262   3.0306071
  84.3699455  50.9170103  42.9323626  84.3916988  50.3284788  42.1777868
  84.9558067  51.6351318  42.6929855  59.8070049  32.8856111  67.3185349
  60.0344133  33.6062527  67.9060698  60.4863644  32.2287631  67.4710417
  42.6342154  33.2374144  69.3804932  41.8911219  32.6599336  69.2056847
  42.4261522  34.0445852  68.9099455  79.7719717  33.7631011  52.4785900
  80.5470753  33.9505243  53.0080366  79.0342903  33.9774060  53.0496645
  47.5304031  16.6415739  62.1778154  46.6734076  16.9721508  62.4470854
  47.3728561  16.2329078  61.3266945  81.3287163  76.2983274  13.1271422
  81.8443584  77.1034431  13.0809569  81.2545586  76.0089016  12.2177660
   4.7745591  50.4703665  59.1752148   5.7152438  50.3010225  59.2268705
   4.6617174  51.3245583  59.5921755  51.1809349  44.2273378  62.4130201
  51.9079399  43.6408424  62.2039318  50.4004860  43.7529516  62.1265078
  62.0117569  19.8191941  56.5707731  62.4947405  19.3643093  55.8808184
  61.1131811  19.8646224  56.2440777  44.5252323  38.4094453  69.6036911
  44.7061586  39.0230680  70.3157043  45.2445078  38.5406017  68.9858961
   7.3639756   6.3536894   8.2689512   6.8946010   6.5111125   7.4497211
   6.6978782   6.4519256   8.9493155  73.0300522  54.0306139  56.4354801
  73.0603504  54.2954350  57.3548174  73.8110876  54.4245720  56.0468769
  61.7638874  42.6133251  55.2688932  61.3640594  42.7572393  56.1265945
  61.4676666  43.3536005  54.7392988  24.3516088   3.0768406  18.7018776
  23.6437631   3.1358325  18.0602348  25.0227141   3.6753845  18.3738601
  67.0096922  14.5872605  64.4942808  67.1680069  15.4197025  64.9394894
  66.6317940  14.8350155  63.6504555  26.2593436   4.0877256  10.2561128
  25.6942177   3.3237791  10.3712296  26.1010098   4.6222085  11.0342455
  52.5323772  41.7006302  52.7275085  52.9736567  41.2019682  52.0398712
  52.0099497  41.0504484  53.1971550  71.3584614  45.4667616  39.9187064
  72.0791817  45.1023197  40.4325008  70.6549072  44.8232174  40.0029278
  72.0753765  80.8185196  22.2386742  72.7861452  80.3477001  22.6738429
  71.2907505  80.3097153  22.4429035  38.9683056   7.8331870   3.8408276
  39.1698074   7.0003456   4.2674467  38.3048987   8.2352197   4.4016242
  14.7758889  71.1635256  22.7402949  15.4408491  70.5744219  23.0966878
  15.2694929  71.9237757  22.4327111  60.0632238  30.1152349  69.8821354
  59.5152521  30.0028086  69.1053963  60.5122995  29.2758369  69.9819756
  68.6074066  27.1958089  69.8846388  68.5533476  28.1322646  69.6939564
  69.2722988  27.1289229  70.5699682  49.7241306  10.7841790  13.5983062
  50.5914021  10.7981634  13.1934893  49.1163874  10.7303762  12.8607547
  33.2395291   7.3230827   0.8688875  33.7029481   7.2072446   1.6983789
  33.0340338   8.2574469   0.8377899  48.2211828  50.2838612  60.9465599
  48.6866188  49.9637032  60.1738405  47.4773693  50.7717419  60.5930853
  11.4587784  30.7731962  17.1315885  10.5939353  31.1438441  16.9558096
  11.7653370  31.2389398  17.9096222  24.3488073  27.4257207  29.1362000
  23.4634900  27.0639563  29.1758370  24.2424989  28.3460021  29.3770528
  60.3858852  50.2222919  59.5250607  60.2946854  50.0822496  60.4675579
  60.0039530  49.4392776  59.1285133  44.7831392  10.8753252   1.3971584
  44.0705919  11.3308096   1.8455370  45.5747080  11.3354003   1.6764113
  28.9314198   1.2778507  12.6132238  28.1179714   1.3600050  13.1110048
  29.5106864   1.9402438  12.9899430  15.4680920  72.0789433  11.2527490
  15.7024848  71.3631678  10.6620181  14.9471247  72.6738119  10.7133484
  83.1820202  70.0246477   9.5889264  83.8042545  69.4002104   9.2159200
  82.4594116  69.4825983   9.9055612  62.8465796  47.5692272  63.6826611
  63.4184313  46.8623543  63.3834124  63.4209347  48.3325624  63.7432194
  49.0412998  22.1817827  66.6373777  49.0926266  22.9056501  66.0131836
  48.2112360  21.7499208  66.4355946  36.5846419  25.9884334  60.4919004
  36.5599132  26.9270086  60.6781721  37.0600510  25.9210300  59.6638489
  27.8140616  14.7422123  13.1443548  27.1395922  15.4139006  13.0435586
  27.3525763  13.9159679  13.0008900  36.0102415  14.1852391   1.7764091
  36.0532975  14.5223749   2.6712376  35.0766826  14.1855907   1.5649889
  72.0725727  58.2027388   2.9629999  71.4713383  57.9555082   3.6655843
  72.4393702  57.3726988   2.6584917  30.2726674   9.4517618   3.4789270
  29.3735218   9.7396487   3.6366978  30.4367232   8.7962538   4.1568846
   7.5507075  13.8925934  10.9401608   8.1300527  13.3441043  10.4112458
   8.1089890  14.6091020  11.2421012  46.7396975  52.5788927  64.9013567
  46.5024376  53.3543253  64.3927908  46.7408800  52.8795910  65.8100986
  39.5746231  39.5862293  64.0314436  39.3743420  40.4691315  64.3422508
  39.6185613  39.6717858  63.0790854  82.1799088  43.3029747  60.5899811
  82.6384163  44.1258955  60.7596970  81.5987968  43.1929445  61.3425970
  54.1847467  44.1168642  58.0062866  53.9520502  44.1029310  57.0779085
  54.0453720  45.0250769  58.2745361  45.3072929  17.7430487  49.7877836
  45.8524418  17.0813191  49.3621588  45.4792404  18.5467458  49.2971325
  85.0656605  21.7919087   4.7907034  84.3441391  21.4289927   5.3044510
  84.6385098  22.3344660   4.1278243  14.1407669  18.6932278   6.6224098
  13.4125566  18.1154013   6.8505746  13.7976253  19.2448485   5.9194160
  68.2353067  14.6412551  69.4976234  67.5084257  15.0714219  69.9479914
  68.9300251  15.2995300  69.4810820  71.2032830  57.5601917  70.1883636
  70.6761968  58.3577519  70.1403348  72.1013295  57.8574270  70.0420996
  58.4153175  55.2485037  69.0524578  57.6279926  55.3590298  68.5194159
  58.7021780  54.3530703  68.8731813  80.9019470  66.0707283  69.3886185
  80.8062458  65.4266977  70.0902557  81.3392544  65.5934954  68.6834669
  49.2210150  38.9954615  61.9840336  49.0604687  39.2596269  62.8899431
  50.1626062  39.1172099  61.8623304  27.8570580   0.6006970  10.0391614
  28.2899261   1.1000105  10.7316506  26.9760823   0.9719209   9.9911165
  39.4590282  49.8314524  63.0419064  39.0239072  50.5300379  63.5306597
  40.3712559  50.1147318  62.9800653  69.6191931   5.7272464  37.1294928
  69.9854755   4.8825860  37.3914480  68.9436054   5.5068290  36.4882207
  72.3499060  22.3418164  60.4797125  71.8176317  23.1344175  60.4111958
  73.1878090  22.6454520  60.8289337   7.6702791  73.9604473   0.1833855
   7.4234384  74.7587204   0.6503507   7.4885374  73.2542992   0.8035131
  56.4750290  66.3573503  66.7356491  55.9628916  66.7384911  67.4488640
  57.3796177  66.5988922  66.9346809  54.6814585  65.9033585  58.4012175
  54.3202209  65.0347614  58.2243538  55.1907158  66.1148214  57.6188040
  46.0787678  12.6893997  11.3865280  45.8992386  12.1706581  10.6023657
  45.5860376  13.4995544  11.2557626  46.0889959  33.3391452  67.7738237
  47.0128822  33.2152987  67.9913759  45.6224966  33.1332278  68.5838890
  21.4049888  24.5338321  19.7285891  20.5376744  24.7481608  19.3849909
  21.4314294  23.5770035  19.7322273  81.0850048  28.6237407  41.7218018
  81.0451508  29.0365601  40.8591175  80.4797268  27.8846312  41.6618252
  49.4580793  63.7292242  65.5283737  50.3809547  63.8030148  65.7714653
  48.9888477  64.1816807  66.2293291  49.0046883   4.0033734  69.5135880
  48.9639759   4.8692983  69.1076946  49.8959446   3.6997372  69.3412495
   7.8543967  62.4504423  23.1681013   7.0819342  62.2711754  23.7041950
   7.7156943  63.3379126  22.8373599  12.2432601  20.4355812  23.2818913
  11.7482710  20.4472685  24.1010857  12.2029340  21.3378286  22.9647899
  42.3465490  37.0814490  65.4139757  42.9474688  36.9410920  66.1457062
  41.4867020  36.8442583  65.7613039  52.6271343  58.8278770  68.2440519
  53.0753040  58.0638409  68.6068630  51.6962576  58.6349678  68.3557940
  24.5234370   0.4455759  17.9714048  23.6433482   0.2064505  17.6807296
  24.4225883   1.3209073  18.3453774  82.1975327  78.0822849   5.3033149
  81.8806171  78.3444262   4.4389778  81.4192963  77.7555609   5.7548070
  10.3800595  68.6122131   3.7354019  10.6057239  67.7799511   3.3198872
  11.1792505  69.1353512   3.6733612  65.6775427  47.5291920  50.8376551
  66.2221479  46.7666006  50.6424809  65.7089615  47.6082468  51.7910671
  14.8830771  50.2311230   2.7710620  14.6189117  50.2791500   1.8522902
  15.0141680  49.2970610   2.9340744  83.1468582  79.9919891   6.9715011
  82.3747349  79.6004248   7.3798323  83.2265759  79.5427942   6.1300147
  11.0835350  76.5697479   7.9583830  10.2799904  76.7925453   7.4883729
  10.9690428  75.6525517   8.2071280  38.5317302  22.9568863  64.9613428
  38.4291482  23.4161448  64.1277981  38.0341959  22.1466064  64.8511744
  54.2332745  29.7114921  51.5356636  54.7392988  29.2562723  52.2086763
  54.0446377  30.5690074  51.9168663  78.7109709  76.4844227  10.6247973
  79.3337679  75.7935667  10.8507764  78.9411449  77.2125530  11.2019289
  78.8118124  22.2980666  67.0843410  79.0036297  21.5611458  67.6643276
  78.5361910  21.8910146  66.2630177   5.2142119  72.8626633   5.2782488
   5.7164812  72.4978256   6.0068440   5.1612812  72.1488953   4.6426645
   9.0577841  55.8472204   5.8991843   8.9025891  55.6299019   4.9799895
   8.9513999  55.0166464   6.3629270  50.0381088  26.1895537  55.9601974
  50.2521563  25.8307981  56.8214226  50.0935984  27.1381783  56.0753632
  39.6725821  12.2731102   3.6874494  40.3075600  12.5026107   4.3659496
  39.7431159  12.9789758   3.0447897  75.2426815  67.4847937   3.3589801
  75.5693388  68.2627869   3.8109228  75.7921982  66.7711592   3.6829960
  28.1133008  35.7793570  62.3579979  28.4069943  36.5895534  62.7746010
  27.3825860  35.4824090  62.9003191  12.3031390   9.1977316   3.7548599
  12.4160099   9.9394822   4.3492493  11.7633152   9.5412672   3.0429572
  34.7864699  20.0387216   9.7530144  35.4136586  20.1484895   9.0382999
  35.0412059  19.2161441  10.1709950  59.2051888  27.1092272   9.1550440
  59.6720934  26.4901423   8.5938233  59.1601610  26.6738772  10.0063229
   7.0358068  63.6200190   2.4878500   7.2455657  62.7839231   2.9039875
   6.0876298  63.5925388   2.3596464  78.8217831  45.7641745  56.2517214
  79.0506363  46.4561892  55.6312561  79.4495058  45.8666658  56.9670534
  75.6915951  63.3507776   3.3459663  75.5201006  62.5775957   2.8083640
  75.3013325  64.0745497   2.8559840  37.2643471  18.8612163   5.6864798
  38.1828785  18.9121258   5.9509373  36.8814254  19.6838665   5.9911948
  53.0649900  61.1618948  63.8978767  52.9102898  60.2458858  63.6671638
  52.4441195  61.6526461  63.3594370  72.0986128  77.5693417   3.7326393
  71.6080236  78.2835579   4.1393936  72.8614140  77.9951286   3.3413899
  37.2338367   3.5393560  30.4702830  36.5820837   3.4149352  31.1601877
  36.7216301   3.5901269  29.6632528   1.8111277  65.4073048  14.2989242
   2.7614379  65.3594065  14.1947746   1.6767958  66.0825872  14.9638927
  18.6252153   5.3288120   7.9617006  18.9708364   6.1865914   7.7147359
  18.3367586   4.9400222   7.1359479  72.9461002  27.4292731  67.8408384
  73.5743189  28.0175853  68.2597160  72.4826145  27.0158958  68.5692215
  15.3504503  74.5523214   5.5262262  14.7260511  75.0499725   6.0541475
  15.8762097  75.2194500   5.0849217  43.7060261   3.5669562   6.3131750
  43.8814735   2.8292596   6.8973428  44.4321537   4.1715747   6.4661509
  85.0636768  30.8095384   1.1972589  85.5988789  31.5837908   1.3713992
  85.4527855  30.4206395   0.4139442  62.3441601  35.7376933  58.6083412
  62.8606462  35.1118207  58.1006432  62.6091385  35.5866647  59.5156527
  37.2539115  63.3766222  50.7225037  37.9929566  63.2565117  51.3188410
  36.7828822  64.1321564  51.0739803  22.4817419  65.6472063   4.0874714
  21.7508626  66.2113953   4.3399325  22.8811169  65.3868103   4.9174869
  57.4804640  48.4922266  55.2138948  56.5265799  48.4844494  55.2931452
  57.6953983  47.6444626  54.8248816  49.0094900  50.8835220  54.9985647
  48.2129097  51.2830973  54.6492338  49.1331816  50.0947523  54.4705725
  39.3439054  47.9078579  60.7750702  39.6262574  47.1232748  61.2451124
  39.0312099  48.4982204  61.4605808  56.0649252  32.2336888  61.0962486
  55.8485937  33.1646419  61.0436821  55.3392458  31.8464351  61.5857935
  77.0526457  79.3040419   8.3692199  77.7894688  79.8892069   8.5450172
  76.8749189  78.8833189   9.2104322  66.4880753  68.1812954  10.0882864
  66.2300920  67.7704382  10.9134376  67.4449873  68.1848907  10.1114118
  65.6817675  39.1898298  43.9994526  66.5131807  39.5811749  44.2674732
  65.0145197  39.7616172  44.3790197  54.1811466  24.8530364   1.1737432
  54.7905254  24.5816064   0.4872935  54.2760229  24.1874814   1.8551151
  66.0928154  29.5779920  59.9994755  65.9006023  29.2937279  59.1058969
  66.3304329  30.5010271  59.9112940  44.6615076   3.6562592  14.7984815
  44.2198515   3.0142605  14.2425966  45.3035259   3.1450868  15.2911723
  32.9771996  51.4050817  58.9489412  32.4801993  52.2047949  58.7766600
  32.3476410  50.8170366  59.3661833  84.3656540  65.1359797   9.5957232
  85.2429390  64.9104261   9.2863101  84.1264725  64.4180393  10.1818848
  38.4855962  28.7662435  62.3295546  39.0823507  28.3756137  62.9679298
  38.9802003  29.4944739  61.9536829  78.0249071  63.0810976  62.1728611
  77.5204611  62.3602724  62.5499249  77.8078651  63.8366938  62.7189398
  79.4314146  67.9983139  46.6675329  80.2103043  67.9184580  47.2181559
  78.8985252  67.2362375  46.8944502  40.8921051  19.0455019   0.0130057
  40.9879589  19.5688009   0.8087448  40.6785345  19.6828210  -0.6684962
  26.5411687  13.9240432   9.3712211  26.0490298  13.3291376   9.9370098
  27.3278356  13.4330153   9.1339833   2.3652220  21.4707375  36.0519600
   2.2426823  21.7590523  36.9564438   1.5462156  21.0285687  35.8284736
  39.5995784  23.6628842  67.3739958  39.3802118  24.5611191  67.6215553
  39.1854239  23.5419941  66.5195417  77.7473593  54.0662622  39.6803665
  77.7628756  53.1400204  39.4393992  77.1983242  54.1007948  40.4636908
  42.9963541  26.0662699  55.9937716  43.8415718  26.4153075  56.2766409
  42.9899502  25.1646042  56.3150072  20.4780173  28.0794716  48.6658525
  20.8449817  28.8080287  48.1650782  20.4081130  27.3648953  48.0328226
  63.2066727  44.5284843  64.8225403  63.6336231  43.7030077  65.0517511
  63.9239120  45.1025534  64.5537615  58.9183855  63.5943460  10.0517166
  58.1844902  63.3792257  10.6273484  58.8414860  64.5375490   9.9078792
  71.9402981  31.0217071  56.9715500  72.6998234  31.5981364  56.8874121
  71.4453506  31.1582208  56.1636972   1.2044214  76.1341047   6.6297317
   1.1774970  76.2239552   5.6771386   1.7142689  75.3382206   6.7809224
  38.4299588  33.6275911  68.9199686  38.3036923  33.0207705  69.6493912
  37.9000926  33.2633233  68.2108974  76.7013788  15.2322769  11.5814340
  76.3449383  15.9542060  12.0991230  77.6496792  15.3058767  11.6888702
  14.6746123   9.2873621  23.2703519  13.8502610   9.6391070  22.9342675
  14.8797619   9.8381990  24.0258145   1.5015674   1.9119616  11.2924361
   1.7524005   1.9257939  12.2160828   0.6095789   2.2590399  11.2812614
  20.2067304  15.3449762  63.4967470  19.9449968  14.8967636  62.6924849
  21.0324287  14.9291539  63.7448311  59.3349123  62.5593042  65.0575304
  59.3834352  62.7006388  66.0029936  59.2717648  63.4394979  64.6867132
  29.1904879  70.7653046  29.1439652  29.6802092  70.2812195  29.8088455
  29.7601438  70.7587051  28.3747602   3.8062134  19.1067863   4.7901270
   3.1807762  19.8205411   4.9150872   4.2401081  19.0172386   5.6386244
  48.9536095  60.9002113  65.4740763  48.1120920  60.8065128  65.9205055
  49.0827990  61.8459511  65.4025507  57.0507479  41.7004967  64.7201920
  56.7682076  41.2917900  63.9020491  56.2683582  41.6984177  65.2716398
  80.7895851  73.1389141   0.6952584  80.9229946  72.2838545   0.2862227
  80.0367451  73.0132437   1.2729058  69.3789864  40.6316996  47.5172472
  69.8967695  41.2979317  47.9692125  69.8887157  40.4224110  46.7345524
  72.7448845  74.7988033   4.4212055  72.6193190  75.6654215   4.0346348
  73.1922102  74.2955780   3.7408406  75.1014185  75.8270121  14.7526073
  75.9490919  75.6591320  14.3409061  75.0697851  75.2198458  15.4919183
  53.5843420  61.3750982  68.1506491  53.1304073  60.5645084  68.3811331
  53.7855768  61.7845058  68.9921474   2.0480023  54.2692614   8.0076367
   1.7638357  54.0778208   8.9014101   2.0149496  55.2238464   7.9450852
   9.1532969  14.9076176  24.1188216   8.3831102  14.3542302  24.2484641
   9.8817945  14.3874192  24.4578147  42.8862858  18.1177545  65.5774784
  42.2029972  18.5240388  66.1106586  43.6061335  17.9618251  66.1888170
  17.7501798  19.1817880  17.4280512  17.1440077  19.0533185  18.1576276
  17.4020743  18.6302185  16.7274618  33.4016538  54.3316746  67.0772505
  32.4739480  54.5334911  67.1991682  33.7927461  54.4725704  67.9394722
  60.6740665  47.0686054  56.2457895  60.5507088  47.9619074  55.9248114
  60.0983000  47.0063019  57.0079231  45.7706547  22.0967031  55.2525711
  46.5173674  22.6470900  55.4886341  45.9852457  21.2353849  55.6107759
  28.6157751  11.1776733   1.9337602  27.9441738  11.7193103   2.3482651
  29.1623068  11.7996395   1.4534563  54.2994261  21.0337758  16.8114769
  54.6209145  21.4395165  17.6166189  53.5231352  21.5435958  16.5797794
  65.1268578  64.7193956  50.7299471  64.3035173  64.9325895  51.1691427
  65.5342293  65.5686235  50.5593967  77.7439499  56.5480185  63.4057665
  77.4583244  56.4069796  62.5031281  77.7748203  57.4999428  63.5012484
  70.3343058  68.7066650  60.9390736  70.4308748  67.8139830  60.6073761
  70.6585121  68.6642885  61.8386984  60.4290009  43.2089853   0.6460431
  60.1152754  42.3325109   0.8687520  59.7481823  43.5699701   0.0782293
  39.9954057  36.2758780   1.0233716  40.8723021  36.2720680   1.4071321
  39.7360158  35.3545976   1.0095257  48.8656998  24.2617059  69.1452980
  48.5575724  25.1523280  69.3128729  48.2909822  23.9357710  68.4526968
  56.1653709  32.4678016   0.1356333  56.7855740  33.0432725   0.5833045
  55.4619217  33.0503488  -0.1507802  56.4354706  63.9460135  53.7061357
  56.4568853  64.6781206  54.3224096  57.0364141  63.3011580  54.0792990
  60.1597166  43.0534649   5.5630994  60.8534575  43.0452108   6.2225604
  60.5221319  43.5662031   4.8406127  27.8325796  44.4382763   9.6421152
  27.4872112  45.0898504   9.0318668  28.3223200  43.8288164   9.0898973
  14.0802526  77.8540230   1.3305074  14.4682062  78.6425591   1.7098999
  14.0406990  78.0346155   0.3913298  62.9355383  24.7795820  15.1324260
  63.6696529  25.1839948  15.5947614  62.1574020  25.1251721  15.5698109
  64.5383072  51.3136530  60.9860516  63.9594078  51.1809444  60.2353907
  64.1716719  52.0723867  61.4400721  46.1399412  16.3026536  14.5524013
  46.3237524  15.3923357  14.7842765  46.2626886  16.3376462  13.6037493
  50.9953547  49.8024464  63.9053679  51.4968204  49.2969608  64.5450974
  51.3029099  49.4860697  63.0559254  32.8444386   5.0912774  23.7385392
  32.3734164   4.7881746  24.5147467  32.9182982   4.3141836  23.1845522
  28.7124419  40.1638556   9.8955673  28.4581590  39.2644310   9.6891409
  28.1138372  40.4276037  10.5943811  10.9541619   8.8272512   1.1479603
  10.2570891   9.0260851   0.5228317  10.7598615   7.9396558   1.4490473
  26.4385986  49.0822363   8.6315876  26.5130234  49.8818493   9.1524637
  27.3393035  48.7715816   8.5396403  29.7746849  14.4669998   6.7202437
  30.3869605  14.4299030   7.4550718  30.1094484  13.8224411   6.0967779
  77.3732710  43.8595390  49.4114923  77.0436430  44.3411779  50.1701784
  76.7435408  43.1495905  49.2864132  28.4747624  21.5951204   5.4615861
  29.4298720  21.6562939   5.4775304  28.2914257  20.8634377   4.8722988
  35.4037738  31.9284678  14.4833708  35.0923920  32.6343679  15.0499201
  36.3577175  32.0024157  14.5108759  39.8646903  26.5661979  13.4953845
  39.8787355  26.4667392  14.4473004  39.2154956  27.2512364  13.3356965
  72.0679379  45.4859209  61.5765333  72.8919125  45.7554245  61.1707544
  72.1003914  45.8610392  62.4565697  45.8650684  50.6416845  67.9882383
  46.2960148  51.0727310  67.2501945  45.8838177  49.7107983  67.7661467
  74.6614027  41.9180012  69.8156929  74.5224524  42.8648901  69.8337173
  73.7930584  41.5516424  69.6483946  24.7720981   9.9893457  17.6572263
  24.9552989   9.1167045  18.0053151  24.8742008  10.5732870  18.4087718
  58.6618710  74.3233204  60.2362013  59.4186068  74.6640348  60.7131624
  58.8380384  74.5406246  59.3207932  69.5815420  66.6377926  63.7414169
  70.0591230  65.9038115  63.3548737  70.1761961  67.3828220  63.6545420
  48.4615326   0.6738673   2.2107641  48.8880587   0.4482415   1.3840841
  47.9321241  -0.0943928   2.4246243  30.2276683   4.2640871   1.1796677
  30.5772591   5.0670046   1.5661141  29.6962094   3.8755214   1.8745074
  11.6053867   6.8024838  13.4782183  11.7683482   5.9905767  13.9583039
  10.6806707   6.7556959  13.2354391  82.1975040   3.6187816   5.4439068
  83.0611324   3.9302194   5.7147861  81.5822220   4.1423187   5.9572983
   9.6522146  77.1103525  56.9217682  10.2077639  76.3539791  56.7333746
   8.8895941  76.7421818  57.3679686  64.6123600  42.4272442  65.0498724
  64.4695234  41.4849377  65.1386833  65.4075336  42.5002623  64.5220423
  24.2446208  26.0956740   1.6787708  24.1648746  25.5332255   0.9083667
  23.4179306  26.5771437   1.7104225  30.5755901   0.6217111   5.0007677
  29.6511436   0.8618073   5.0638664  30.6147814  -0.2718594   5.3416902
  25.1401901  48.1759882   5.5997419  24.5018291  48.6091757   5.0331062
  25.0692105  48.6361313   6.4360797  60.3353071  28.4329319  65.8660507
  61.2782574  28.3487988  65.7246494  60.1538515  27.8652787  66.6151047
  55.9469080  17.4394488  14.7865546  55.1481056  17.5400198  15.3042686
  56.4835787  16.8277693  15.2906036  43.4488630  12.7714586   2.9930830
  42.8550911  12.7417862   3.7432721  43.4916830  13.6983621   2.7580324
  50.5384922  20.4043770  18.6248195  50.9241581  19.8184586  17.9735184
  50.6806898  19.9601305  19.4606757  14.5373964  32.5448370   3.4442329
  13.8209558  32.0267129   3.0775002  14.1030955  33.2705212   3.8925612
  39.6984744  64.9094009  55.8447552  39.3740916  65.0675106  56.7313242
  39.6879530  65.7713366  55.4285955  10.5526853  72.6178598   1.4713407
  10.7194078  73.4732246   1.8673028   9.7052777  72.3503208   1.8270877
  26.0492158  70.9108448  19.3259060  25.5977201  70.6307745  18.5297000
  26.0235119  70.1439810  19.8981738  83.0468845  55.6567144  56.4759636
  82.9726028  55.8996391  57.3988438  82.3184395  56.1085224  56.0499859
  68.4491825  65.0746393  67.9585218  67.7802801  65.7073259  68.2202482
  68.2383394  64.8658180  67.0484829  57.4985170  42.9413128  58.3865929
  57.3662949  43.7801790  58.8282442  57.0785761  43.0509949  57.5334501
   7.7870363  44.1173840  10.4835522   8.4025252  43.8274527   9.8102438
   6.9242847  43.9090681  10.1250911  53.0027628  27.1353340   2.1477886
  53.5755205  27.0060301   2.9037362  53.3793783  26.5809941   1.4643416
  84.6491623  18.5395324  62.2292089  85.5061913  18.1305122  62.3493481
  84.5166016  19.0558124  63.0242634  81.9915295  41.7036486  48.4693623
  81.6735649  41.9280958  47.5948620  82.9443169  41.6832876  48.3798695
  59.3214512  51.9583511  63.0595779  59.5084047  52.6227665  62.3963833
  59.4103098  51.1256027  62.5960350  34.2193556   1.8854746   1.6411404
  33.5099339   2.1220878   1.0436754  35.0187802   2.1039283   1.1621501
  61.4924002  54.9308681  52.7430534  62.4255657  54.7904444  52.5827217
  61.4194727  55.8670855  52.9285431  57.3786306  74.0830278  40.8083153
  57.1672487  73.1958055  41.0988140  56.7093611  74.6338511  41.2143993
   6.0684323  59.1670036  64.9977541   6.5146136  59.2982340  64.1611338
   6.5088218  59.7660398  65.6006145  33.6628938  40.8410835   7.5960636
  34.3741512  40.3884363   7.1427959  34.1039085  41.4810133   8.1548351
  70.9687519  49.3885183  67.2554731  71.2637997  50.1567173  67.7444029
  70.4129648  49.7447062  66.5623188  64.7880030  55.8124447  69.1135025
  63.9787436  55.4275370  68.7770844  64.8110723  55.5542183  70.0349283
  27.9302812  19.4992054   0.8617264  27.3960710  20.2933908   0.8506701
  27.3067713  18.7890112   0.7097659  85.0931454  63.0682230  66.1986017
  85.2937126  63.9865685  66.3792896  84.1799641  62.9653168  66.4664555
  85.1732349  41.4729118  65.7954407  84.9405670  42.2059584  66.3653040
  84.7277832  41.6609716  64.9693489  54.2981529  53.4753799  68.0521250
  54.4366026  52.5290823  68.0123472  54.2259741  53.6677933  68.9870024
  71.8803501  65.1909351   5.8926547  71.0712242  64.6798944   5.9123355
  72.1793127  65.2012205   6.8019116  84.1920471  71.1367321  50.0192642
  84.2159653  70.4363537  50.6712818  84.1234875  70.6808090  49.1804171
  70.4090786  65.0461292  60.4092503  70.7605410  64.7605324  61.2525463
  71.0644293  65.6562614  60.0708914  43.6804152   9.9301100   5.8688366
  44.4390011  10.0384235   5.2952093  42.9692650   9.6769756   5.2802593
  60.0524330  70.8409786  43.5680008  60.8304882  71.3360739  43.3116007
  59.7732496  70.4008675  42.7651405  67.8574562  58.3166170  45.5744410
  67.7624130  57.4377918  45.2072048  67.7296782  58.1980133  46.5156317
  35.2266765  11.6425014   4.8927236  35.0919318  11.3800359   3.9821261
  36.1442018  11.4342034   5.0687629   6.9642860  69.3023396  46.8538332
   6.1823666  69.7766256  46.5711927   6.6345668  68.4569502  47.1585178
  64.5200539  42.3766232  68.1514978  64.6197414  41.7283821  67.4543047
  63.9932585  43.0723238  67.7581596  44.4125080  51.0410213  55.8506775
  43.5022688  50.8176613  55.6562471  44.5870733  50.6223345  56.6935635
  14.6880102  41.8298054  22.9586482  15.0283277  41.2130117  22.3105860
  15.1460338  41.6036701  23.7681580  43.0278826   7.5057429  42.5860739
  42.3622036   7.9026836  43.1478024  43.1580830   8.1418318  41.8827486
  43.5015392  15.2596247  22.9105353  44.2246532  15.5690610  23.4560513
  43.7329626  15.5393350  22.0248508  83.6858654  74.2135620   5.8489984
  83.8813210  73.3526802   6.2190098  82.7835655  74.3896103   6.1156338
  39.8942351  28.8670111   3.2644802  39.3487096  28.0824423   3.2089230
  40.7186651  28.6154604   2.8482217  41.7285395  54.2451859  60.2953720
  42.0426226  54.8506832  60.9669065  40.9010172  54.6242857  59.9991941
  60.8420324  45.5414104  62.2613382  60.6856012  44.7285891  62.7420521
  61.5976810  45.9356785  62.6969767  42.4747705  37.2283959   5.7151544
  41.7814875  36.9400883   6.3088417  43.2849741  36.9381762   6.1341745
  61.1353922  48.7926245  47.5505447  61.0558510  48.1934404  46.8083286
  61.8909645  48.4680843  48.0404568  63.1911898  50.5663061  48.3584881
  63.4797144  50.7279921  49.2567348  63.5666943  49.7144127  48.1359863
  21.8000913   4.2394692   7.8263491  22.5414753   3.7191659   7.5167292
  21.1044216   4.0662578   7.1920997  37.6172280  55.6486988  11.2289155
  36.8515396  55.0757837  11.2704194  38.2552242  55.2384949  11.8128061
  32.1272349   5.1723218  12.1304035  31.3230085   4.7057191  12.3578465
  31.8260431   5.9985238  11.7523766  33.4531546  33.0209637  17.5857270
  33.3726120  32.0713162  17.6746869  33.3838582  33.3521366  18.4811354
  84.2776299  67.6020813  25.8579159  84.0450668  68.5265732  25.9442401
  83.5574818  67.2197533  25.3564763  66.7609406  44.1135359  63.3013487
  66.7847872  43.1897831  63.0516624  67.1385717  44.1337919  64.1806746
  61.9597578  11.5528071  68.5120726  62.0100021  11.8626499  69.4163418
  61.0219240  11.4723611  68.3382130  49.6346140  27.9344177   2.6611245
  49.5779228  27.9202414   3.6165389  50.5586195  27.7693200   2.4735409
  50.7487631  46.8865871  62.0847654  51.0974884  46.0025215  62.1990156
  49.9506474  46.8993616  62.6130438  66.1058187  25.1215243  63.4423494
  66.5725136  25.5431008  64.1639471  66.2913179  25.6731462  62.6823902
  18.8787377  25.4837966   6.2873966  19.2354047  25.7033205   7.1481115
  19.3777394  24.7154164   6.0102296  15.4220951  28.1600642   2.9939952
  15.0415015  28.4103417   3.8358632  16.2037861  27.6579356   3.2243377
  13.2869339  72.4867153   2.2107349  12.3527026  72.3579407   2.0468386
  13.4243941  73.4260082   2.0880158  83.6757469  56.6248417  67.7488279
  84.0199661  56.9626570  66.9220114  84.2009354  57.0579958  68.4217262
  33.8939333  10.3249395  64.1440248  34.5604753  10.9218419  63.8039351
  33.1130958  10.5169153  63.6247206   2.1304901  28.3356571  23.9102030
   1.7365295  28.8199186  24.6358180   3.0393261  28.1999803  24.1782355
  34.6564388  10.3755879  17.6188827  34.5504594  10.5804372  16.6898847
  33.8566017  10.7042062  18.0293715  83.0338764  50.8594179  54.7547102
  83.9826679  50.8376074  54.6300030  82.8153801  51.7912579  54.7677898
  13.7143004   8.6586267   0.1306321  13.2875252   8.1392187  -0.5507706
  13.0495965   8.7507021   0.8132175   3.8340566   3.4397286   0.6741589
   4.2772898   2.6719829   1.0351886   3.4839433   3.1414649  -0.1653001
  37.7961993  39.8670459  67.0181894  38.1064892  40.6130123  66.5048742
  37.8545976  39.1229987  66.4188433  50.2745008  44.1607141  51.0785961
  50.3273106  43.4752226  51.7445898  50.9866476  44.7619534  51.2967253
  70.3119850  43.0203819  65.6888819  70.2338505  43.2955217  64.7754097
  70.3490925  42.0647430  65.6488466  -0.0169469  -0.2649912  59.5074320
   0.7452868   0.1762167  59.1325092  -0.2269079   0.2436606  60.2906466
  37.2967696  31.8928266  11.7946088  38.0875206  31.5123653  11.4122546
  36.6186738  31.7495656  11.1343873  31.3054299   4.3334299   8.6072588
  31.0670471   5.1851535   8.2412362  31.0953593   3.7075934   7.9141277
  30.1230860   7.6834184  58.2008696  29.5856404   7.3045444  57.5052834
  30.6984901   8.3009934  57.7494907  63.9167738  45.6658030  54.0511465
  64.0388632  46.5418959  54.4169140  63.8616419  45.0925827  54.8157406
  64.8872280  70.1982737  56.1986256  65.1387835  70.0640345  55.2848768
  64.2944241  69.4722986  56.3929796  49.7624302   0.7930655   8.2940406
  50.4269600   1.0900000   8.9157021  49.6869230   1.5095024   7.6637638
  48.1623650  34.4508505  11.0727918  47.4030733  34.8940492  11.4513195
  48.9055157  34.7688890  11.5854418  80.0073719  21.2590075  62.1239948
  80.6793308  21.9370604  62.1943092  80.3965855  20.5940795  61.5560007
  51.9819832  67.0482922  51.4315367  52.5566196  67.4116039  52.1053553
  52.1281528  67.6047993  50.6665754  18.3370543  16.6049254   9.5009303
  17.7993906  16.1073315  10.1170051  17.7113056  16.9604433   8.8698381
  16.5993607  17.7320004   7.6051742  15.7794392  17.7414322   7.1113414
  16.5400040  18.4931755   8.1825131  77.2164059  65.9603310  18.5005200
  76.3817501  66.4204645  18.5892034  77.2429609  65.3657627  19.2501950
  73.0038452  71.2889624  60.8626127  72.3088551  71.7199183  61.3601065
  73.5612392  72.0057011  60.5595732  21.3245225  27.2389197  -0.2984364
  21.2410092  28.0714583   0.1664693  21.1036348  26.5760422   0.3558081
   4.4288388  48.0852556   6.3937157   3.5900459  48.5196924   6.5483874
   4.7376120  47.8428841   7.2667265   2.7983725  79.5677805   6.3750231
   3.4476435  79.7003412   7.0657521   1.9558223  79.6069145   6.8275821
  57.3795986  60.7009459  59.3845797  57.0885038  60.7840633  60.2926445
  56.7399740  61.2044287  58.8809776  82.4664497  63.9036703  60.6397200
  83.2210159  63.3269596  60.5202770  81.7611980  63.3203793  60.9201336
  45.6186676  14.3832099   6.1892062  44.7484589  14.1585565   6.5185934
  45.4855728  15.1902258   5.6919724  82.9964924  70.4942131  69.5238495
  83.6501884  70.8651495  70.1165676  82.4365616  71.2348413  69.2910814
  64.3907404  55.6730270  52.6537609  64.4743395  56.3058519  51.9404745
  65.2895021  55.5217457  52.9462910  36.8641996   3.0312687  13.1808770
  36.0446620   3.4407637  12.9035616  37.3303127   2.8513458  12.3644233
  41.7085314  31.3571310  11.1937475  42.2293329  30.7831645  11.7554963
  42.2220087  31.4355898  10.3897464  33.5047650  24.3090463   3.4193903
  33.8501668  23.5353112   2.9741228  33.8854861  25.0482225   2.9451525
   8.7923747  62.2149754  68.9753771   7.9556894  62.0460463  69.4085646
   9.2691505  61.3878441  69.0444565  56.1909199  77.6818609  41.0414743
  55.6017208  77.0103884  41.3852835  56.9097376  77.1895599  40.6450319
  80.1917744  43.3759546  62.5366116  79.2630959  43.3592367  62.3052835
  80.3141499  42.6060390  63.0920219  66.4755440  28.8102317   1.6445886
  66.7936182  29.6586180   1.9533025  66.6579628  28.8135338   0.7049374
  24.2091393  12.3955584  27.2562313  24.6571636  11.5515363  27.3121834
  24.8242974  13.0192959  27.6419306  28.6414766  21.3935328  16.1679995
  27.8773284  21.8711591  15.8452272  29.3667054  22.0113826  16.0756087
   7.2136146  29.3254066   6.6317683   6.2767363  29.2437649   6.4533699
   7.2690743  29.4190645   7.5827593  62.3018742  32.5645876  65.0985861
  61.6541767  31.9772363  64.7090483  62.3513269  32.2926068  66.0150003
  65.5822992  72.7244043  45.9396410  66.2002230  73.3056068  45.4962349
  65.8048296  72.8011894  46.8674421  57.5446844  69.3885279  63.5629320
  57.9271460  69.6998644  62.7425528  56.7120838  68.9934254  63.3042860
  34.1119671  13.7331033   8.7296438  34.5108771  13.0927205   9.3187213
  33.2911849  13.9746368   9.1588420  43.7457991  73.6591291  56.2664461
  43.5360765  72.9412174  56.8638134  43.4891939  74.4491816  56.7420530
  33.7940168   1.6504459  64.8346758  33.2404637   1.9374742  64.1084337
  33.1825495   1.4923579  65.5539465  68.6323118  70.2775431  64.8635101
  68.7407827  71.0738420  64.3435335  69.4122410  70.2451372  65.4174900
  14.8595786  33.4970236  13.0585301  13.9838612  33.2869697  13.3829165
  15.0660086  34.3426704  13.4566534  15.7112813  20.4800749   8.2753932
  15.3471291  20.9398937   9.0318269  14.9483192  20.2485466   7.7457565
  49.2412376  12.9877031  15.3766179  48.6787128  13.2713950  14.6559823
  49.2854738  12.0358753  15.2855206  84.7512817  24.1035676  59.0781212
  85.1026535  24.3381190  59.9370480  85.4907513  23.7079334  58.6167288
  43.9131355  38.7004423  61.5643501  43.2994938  38.2230878  61.0059500
  43.4247780  38.8648939  62.3710060   4.5850796  27.0432210  16.4544880
   3.9596391  26.8393469  17.1498239   5.4368228  27.0444202  16.8912530
  77.6342916  47.8112364  54.3919230  77.5731707  48.0762243  55.3096819
  78.0876637  48.5368681  53.9627981  30.2571225  10.2284181  15.2369666
  29.8216414   9.4625449  15.6111658  30.9185219  10.4687214  15.8858407
  81.0382080  59.8190165  40.4122591  81.0277748  60.7430887  40.6616831
  81.9525909  59.5542240  40.5123520  78.3889389  51.1288786  59.3030691
  79.2996979  50.8967400  59.1217995  77.9310513  50.2892256  59.3425083
  12.8976238  74.3777609  13.1899452  13.7131763  74.6811199  13.5887957
  12.7651882  73.5017252  13.5522342  73.3123302  40.3369045  67.6669598
  72.6396084  40.5696678  68.3068800  73.8238335  39.6509194  68.0959368
  63.1334400  28.0027723   7.0286125  62.8100681  27.6918554   6.1830407
  63.8130522  27.3738360   7.2710985  41.3835764  62.7507830  63.8169575
  42.0028067  63.0044699  63.1325388  40.7777452  63.4893847  63.8775730
   0.6309901  76.5002632   4.0698412  -0.1005514  77.0847130   3.8711026
   1.3732477  76.8761158   3.5965326  66.1476040  56.1097717  55.8042049
  66.4692402  57.0090294  55.7399988  66.5110922  55.6699467  55.0356579
  63.3146000  53.1319475  66.8293715  63.1903315  52.2391748  66.5072727
  63.6069155  53.6247063  66.0625744  80.3153515  47.8418398  55.4585409
  81.1161137  47.9254198  55.9762526  80.5851460  48.0518818  54.5644903
  67.4746370  41.9275141  66.3688660  67.5009632  42.4028826  67.1992683
  67.9452944  42.4913979  65.7550669  34.2270803  17.6575899   3.0418679
  34.3182921  18.6001778   2.9024386  34.8855686  17.2657859   2.4681832
   2.5671065  34.2903614  59.0887928   1.6579737  34.5025229  58.8773775
   3.0842924  34.8311186  58.4918547  51.1265993  37.5317717   4.6296707
  50.8997154  37.7854228   5.5243313  50.4632998  37.9556155   4.0850407
   2.5487390  61.5301275  56.1608601   1.8930514  62.2269106  56.1890888
   2.4917489  61.1126566  57.0203352  62.8007650  51.0152578  58.4523296
  63.5265017  50.4007483  58.3431530  62.0886993  50.4840708  58.8087463
  77.5510120  59.5682192  45.3207397  78.0689240  59.0842104  44.6775150
  77.9484606  60.4387379  45.3421402  74.7031498  63.2638884  57.7967882
  74.5584202  62.4863577  57.2575951  75.4497814  63.0357075  58.3506060
  73.7274599  62.9189491  20.5803084  72.7707100  62.8972816  20.6002331
  73.9941931  62.0929193  20.9837484  21.1654949  18.1925547  24.1369700
  20.2297640  18.2582057  24.3275762  21.4611530  17.4375498  24.6456766
  34.7319388  70.9861469  11.6750562  34.2955184  71.7731380  12.0012665
  34.6175170  71.0249710  10.7255137  83.5426235  30.3762412  41.6111565
  83.7662983  29.4929814  41.9045067  82.9312515  30.7005954  42.2724009
  48.8602209  14.9946284  23.7971091  48.5628939  15.9031057  23.7471318
  48.5450268  14.6858466  24.6465445  78.8698339  36.5239859  61.2948513
  78.4401989  36.5632725  60.4403877  79.7719431  36.2716556  61.0979652
  10.3560185   9.8852336  49.8274088  10.9760284   9.1576904  49.7774076
  10.6383562  10.4882193  49.1397142  79.1160727  71.7862511  62.5891161
  79.6083975  71.7132330  63.4067440  79.4079828  71.0394955  62.0662594
  15.6574237  15.8880591  49.0766144  15.7164323  15.1652348  48.4518957
  16.1605239  15.5910027  49.8348236  12.2353113  71.1451721  55.5682421
  12.0427454  70.2076960  55.5511856  12.4946153  71.3527918  54.6705294
  25.7761192   9.2286402  44.7114658  26.1826134  10.0754106  44.5271444
  26.4247775   8.7610292  45.2375984   6.7659843   9.5340234  54.2657995
   7.5954175   9.8936462  54.5803499   6.3630199  10.2524173  53.7781906
  18.3514822  47.4785614  49.5751619  19.2397773  47.6431274  49.2588043
  18.4684491  47.2002840  50.4835224  24.6119738  29.6683049   1.0337880
  24.4112730  29.0701604   0.3139453  25.4928875  29.9888921   0.8402778
  82.2505856  77.4131870  36.8868804  82.2424030  78.2171345  36.3674235
  81.7631912  77.6355886  37.6801133  47.9538488  29.7401428   1.1688121
  47.8014278  30.4956532   1.7364426  48.3025312  29.0675139   1.7538115
  66.5067530  54.8522377  46.1657476  65.8895683  54.2401409  46.5665627
  66.3553381  54.7632980  45.2247906  64.6706200  28.6661005  18.2016373
  64.2766047  28.8854623  19.0459490  65.1537848  27.8562999  18.3659756
  84.8205757  77.7304411  64.8108721  85.5427456  77.2128487  65.1669693
  84.3223381  78.0072641  65.5798674  52.3446274  30.2367854   2.6235336
  52.2993612  30.3138304   1.6705140  52.7214336  29.3702054   2.7761400
  72.8045893  50.7467127  58.5060310  73.6479712  50.6921339  58.9554310
  72.6545095  51.6851091  58.3914995   5.1678205   9.6051633  63.6728811
   4.7747275   9.3492967  64.5072937   5.9095824  10.1586008  63.9172792
  72.2812891  51.3054943  69.0791225  72.7759409  51.1878824  69.8901224
  71.4100170  51.5776348  69.3673134  46.1770105  57.9071331   0.7763948
  46.5860367  58.6983442   1.1269823  46.1984777  58.0269670  -0.1730315
  25.9260440   8.6451167  60.2444887  26.1520767   7.7480906  60.4904222
  25.5201983   9.0135717  61.0291958  34.2496705  52.3143101   4.4064468
  34.8540044  51.6930676   4.8127377  34.4531298  52.2702456   3.4721589
  58.1200409  56.8993855   5.5302310  57.1707439  57.0218801   5.5379397
  58.4566641  57.6014519   6.0870278  55.2189398  80.8932590  45.0237083
  55.7398796  80.4019165  44.3885422  54.6158886  81.4105606  44.4898844
  68.0446720  79.6870899  62.8963661  68.5287952  80.4795647  62.6643133
  68.2982397  79.5080328  63.8018370  45.3909302  48.8492727   1.5695441
  45.9117699  48.6266088   2.3411512  45.8599520  49.5800066   1.1667018
  54.2869902  37.1621132  15.4349351  54.5389843  37.9347897  14.9292672
  55.0655937  36.9477773  15.9488130  66.8641758  63.2766771  38.5867238
  66.9072390  62.4731588  38.0683208  66.6448212  62.9803371  39.4700670
  55.4919577  35.9919333   1.1343946  54.7073555  36.4876151   1.3687702
  56.0831356  36.1139226   1.8772674  76.4688396  72.1235418  62.0970154
  77.3531342  71.9612789  62.4255228  76.0658598  72.6835632  62.7605009
  55.0341082   3.5241097  54.1359949  55.4913282   2.9035011  54.7034693
  54.6082115   2.9766127  53.4763813  60.1737499  65.3397894  64.3604469
  60.4978800  65.7900524  65.1404715  59.6744633  66.0066700  63.8890505
  62.3134089  64.1815758  62.7511501  61.8419647  64.4247580  63.5479116
  62.1516132  63.2431555  62.6540899  84.3636131  43.6905766  67.2417212
  85.1703167  43.8044691  67.7441978  84.3096542  44.4740725  66.6944933
  19.4417596  14.3184865   3.9821360  19.2912459  14.0007138   4.8724157
  20.3932309  14.3975282   3.9136916  62.9876137  47.0048857  66.6310835
  63.8540554  47.0879412  66.2328291  62.6671696  46.1539078  66.3321161
  69.5860815  54.5772266  53.4649849  69.9576473  54.9697876  52.6750088
  70.3262806  54.1403389  53.8862514  52.0094395  43.5925341   1.4031103
  51.3611889  43.7277889   0.7119451  51.5124798  43.6749220   2.2170368
  24.9993253  -0.1691214  64.9989557  24.9758363  -0.3019896  64.0513134
  24.4140363   0.5727941  65.1513672  10.0212634  76.0879230  39.3466234
  10.7518768  76.3161325  38.7718558   9.8156977  76.9014597  39.8072052
  59.0309095  18.7735593  30.8736968  58.3839798  18.7211072  31.5772343
  58.8114882  19.5794654  30.4061484  79.6057606  61.8827200  54.4358444
  78.8773155  62.4189758  54.7489405  79.4024038  61.7163754  53.5154057
  45.5403709  31.9123292   4.0399233  45.3088236  32.2800922   4.8927823
  46.2938499  31.3495922   4.2183328  78.8113689  61.7713165  41.6080856
  77.9669619  62.1268177  41.3309193  79.1196251  61.2700272  40.8531570
  82.8439140  10.1519799  25.4242110  83.2528973  10.6654954  24.7275996
  81.9454956  10.4794145  25.4672289  64.1885614  63.7947845  59.5992661
  63.9772940  64.7113895  59.4219732  64.8590851  63.8311529  60.2814007
  17.9113686  67.9987955  41.2179279  17.6343381  68.5743761  40.5050516
  18.8404989  68.1955242  41.3372946   4.2629242  76.3912868  46.5616083
   4.8909849  76.2272644  45.8581352   3.6975712  75.6188822  46.5628529
  41.8369818   7.9643685  39.1400456  42.6888371   8.2410383  38.8023567
  41.9986534   7.1003085  39.5188522  44.5722389  11.9197154  51.0389996
  43.8354588  12.3491728  50.6043100  44.2849112  11.0146034  51.1592007
  35.5184174   8.0562359  49.2060900  35.8186030   7.9761177  48.3007145
  35.7834148   7.2347754  49.6198654  18.4226489  69.8520088  45.1437569
  19.2928457  70.2433109  45.2203894  18.1162453  70.1173306  44.2766047
  34.5342660   2.8394493  52.7161312  33.8780904   2.7726918  53.4098244
  34.2975497   2.1503210  52.0954037  84.8626232  79.5411634  52.8870630
  85.1468277  79.5404243  53.8010979  84.3310452  78.7498236  52.8008890
  36.6273499   4.0562460  34.9881649  36.0120296   4.5840472  35.4971218
  36.2032914   3.9484534  34.1368198  53.9699268  40.2414989   4.9409881
  53.1443262  40.5758333   5.2914703  54.3141413  39.6787143   5.6345463
  42.0126915   4.8378667  40.3172731  42.7480936   4.6096173  39.7486615
  42.3267221   4.6504381  41.2018538  77.9978085  33.7979341  10.2216029
  78.4505749  33.6205435   9.3971235  77.0680666  33.7619543   9.9968410
  42.4605417   7.2946596  16.5007102  41.6197014   6.9850761  16.1640000
  42.4752188   7.0036751  17.4124908  27.4374747   3.3876124  59.2873764
  27.6839685   2.4665979  59.3722582  27.7128267   3.7863076  60.1128769
  52.4597216   8.1201112  62.1319866  51.5991402   7.8945345  62.4851847
  52.9520941   7.2996897  62.1585941  43.0824280  14.4710147  54.7826433
  43.2694244  13.7481070  55.3815365  42.2795439  14.2078197  54.3328285
  69.9981213  63.4609222  55.2633047  70.1203823  64.3420553  54.9099159
  69.3602896  63.5719919  55.9683323  82.5340843  73.9240885  59.3269873
  82.6313496  73.3704758  60.1017666  83.1138897  74.6680784  59.4899082
  10.3505123  79.8481560  57.7485609  10.0854850  78.9805555  57.4431658
  10.2235508  79.8174000  58.6968040  43.0861712  11.6302752  65.3473043
  43.5471916  10.9451365  64.8632812  43.0965757  11.3298786  66.2560892
  78.9294958  69.2862749  61.1874437  78.0032349  69.5273304  61.1747408
  78.9353228  68.3726454  61.4728928  18.5629058   7.9119802  17.4872315
  18.3120751   7.4868405  16.6671264  17.9080462   8.5990769  17.6108825
  53.3509302  45.4467154   2.5886831  53.1438828  44.7827291   1.9310480
  53.1233406  45.0365591   3.4230715  21.6802979  79.5513487  53.2595301
  22.4486852  79.1208363  52.8847361  21.6256785  79.2094898  54.1519308
  42.0520878   1.2997819  54.2940187  42.4532032   0.5141457  53.9223814
  42.5836945   2.0216751  53.9586115  60.0070810  14.8352957  50.6653070
  59.8944330  15.6482923  50.1727867  60.9555244  14.7301400  50.7402897
  36.2704611  70.8844090  46.4907646  36.4744473  70.2367067  47.1653795
  37.1192670  71.2567329  46.2517405  38.3673382   0.6334069  42.8645802
  38.3700752   1.4648804  42.3903704  37.6357365   0.7094388  43.4771299
   5.1874858  79.1467571  64.4991398   5.2630872  78.3971024  65.0895119
   4.8248655  79.8451662  65.0440788  17.4447584  14.1267753  57.7538395
  17.3199034  14.6261930  58.5608244  16.8315732  13.3954644  57.8274584
  19.8490918  63.3068132  50.9081650  19.8776639  64.2373896  50.6858158
  20.5357265  62.9111004  50.3713417  78.5559273  59.4312096  60.8981562
  78.9748621  60.1282167  61.4030361  78.7729120  58.6284637  61.3722277
  17.4283433   8.9830869  45.2067423  16.8594670   8.4893024  44.6161556
  17.6042521   9.8009938  44.7416401  37.4702001  21.2944627  22.5738358
  37.3729897  21.1957645  23.5209584  38.3417320  20.9466171  22.3849773
   4.5697454   0.5219078  47.5427485   4.5979461   1.4383444  47.8176641
   3.6840796   0.4017818  47.2001123   9.7768366   7.2938484  57.1298742
   9.6588361   7.9993004  56.4937592   8.9104033   6.8946236  57.2082663
  75.0001097  72.4071121  52.8339911  75.1072931  73.1088686  52.1919012
  75.6412745  72.6066446  53.5161448  22.6934290   6.6374576  55.3623772
  22.3309040   5.7706022  55.1797009  22.5988913   6.7419481  56.3091516
  80.2851391  74.4029236  63.0355978  79.6285057  74.0458679  63.6335707
  80.6871128  73.6327600  62.6337290   8.2234508  25.4699302  45.9741640
   7.9021776  24.7504497  45.4306936   7.4431694  25.8011484  46.4187860
  13.1853175   7.4370766  43.9279842  13.3338666   8.2204556  43.3983803
  13.2141864   7.7501577  44.8320723  53.7238550   1.3644359  58.3304262
  52.8960323   1.8418762  58.2756853  54.2804956   1.9127868  58.8833237
  63.9417791  57.8489923   4.6782923  64.4462824  57.1153831   4.3268296
  63.8824844  58.4689665   3.9514139  71.8853617  11.6286469  55.9884787
  72.5477409  11.0778439  55.5712223  71.1587095  11.6429019  55.3655767
  57.9218578  24.0877819  53.4146833  58.2674646  23.3385396  52.9294777
  57.6617718  23.7253547  54.2615795   8.0012900  65.2681541  46.0450792
   8.7959170  65.0482988  45.5588055   7.3360276  64.6737528  45.6981707
  22.5490618  80.5510521  42.4390793  23.4365916  80.8732986  42.2819948
  22.0872903  81.2975216  42.8208923  83.8502598  63.6361980   7.0091522
  83.5982800  63.4176636   6.1119461  83.0999088  63.3696556   7.5403398
  23.0104899  77.8562307  41.8129110  22.8048468  77.5666428  40.9240437
  22.7395248  78.7740231  41.8345118  34.6541643  63.1005478   9.0885764
  35.5659771  63.3191109   8.8960636  34.1791153  63.3299160   8.2898569
  18.4151125  75.8608294  52.1510220  17.8586531  76.3299751  52.7727032
  18.9237940  75.2575588  52.6928186  74.8882198  79.8486280  55.3960323
  75.1824713  80.2475834  54.5771980  75.6603718  79.8650599  55.9614944
   1.4783847  70.6195688  61.7647600   2.4276108  70.5861568  61.8834400
   1.2717783  71.5540648  61.7485857  35.3219318   5.5623305  54.4531679
  35.8529711   6.3550681  54.5292950  35.5091357   5.2321094  53.5744524
  83.4368515  18.0925572  53.1192207  83.2799435  18.0714810  52.1752024
  83.3961582  19.0210962  53.3481121  31.0437202   7.2382748  36.1968470
  31.0940480   8.0276799  36.7358637  31.8536711   6.7654687  36.3883305
  37.3143673  26.6537619  49.2986012  36.8958068  27.4541545  48.9817238
  37.6811218  26.8957853  50.1489830  49.0725231   4.8558584  53.1087923
  49.8893452   4.4007590  53.3135319  48.5049725   4.6784028  53.8588762
  54.5313120  20.2272272  59.9062014  54.4355583  20.6913638  59.0745497
  53.6487246  20.2146626  60.2764797  24.0093112  13.6841929  53.3052778
  23.4109521  13.4837246  54.0250015  24.8366809  13.2763982  53.5610008
  42.7882767   6.0604751  59.6273375  42.5114059   6.9674700  59.7574759
  42.0216370   5.5394244  59.8660946  82.8922749  66.7383146   5.9041619
  82.0238400  66.3627005   5.7593870  82.7251530  67.6610088   6.0963506
  77.2234392  35.5950475  28.3424473  76.4786434  36.1949158  28.3015800
  77.4364328  35.5407834  29.2740703  74.1466951   2.4503466  26.4272523
  74.8211813   3.0896237  26.1978507  74.6235609   1.7463112  26.8667603
  57.7606106   6.4720291  13.7956023  56.9242239   6.1379206  14.1197383
  57.8649139   7.3185664  14.2300296  50.2819157  10.1530075  32.8125906
  49.7026491   9.6263993  33.3633780  50.4824734  10.9235036  33.3439517
  52.6651430   8.8081443  43.7462473  52.5935364   7.8807700  43.5202360
  52.5830412   9.2656314  42.9094696  44.7165346  27.5959229  61.1945581
  45.4588223  28.1445026  60.9409809  44.7123718  26.8865657  60.5518866
  62.8368282  25.6675482  63.7194633  63.5685825  25.4857516  63.1297874
  63.2312441  26.1415744  64.4515610  68.4323740   4.8546547  58.7955236
  68.0423689   4.2946970  59.4667721  68.2152987   5.7453287  59.0708590
  53.1376886  80.7870388  62.3227739  52.3979473  81.2984085  61.9948769
  52.9464912  79.8888874  62.0525837  39.4032431  57.4844742  64.8149014
  39.8870802  58.0647898  65.4025793  38.6616302  58.0105925  64.5158339
  82.2928238  77.8318882  29.6633744  82.0344067  76.9547749  29.9464417
  83.1044292  78.0077791  30.1394010  40.5193853  18.0787671  58.5694075
  39.8075390  18.7002480  58.7219572  41.3103724  18.5529399  58.8257790
  23.3926654  73.7018347  40.1907682  23.4955597  72.7677298  40.3726864
  22.4581337  73.8099241  40.0141382  61.5827894  53.0241442   4.4910744
  60.9493208  52.9770517   5.2071273  62.3436165  53.4619522   4.8727754
  72.9285717  62.8921127  33.0707884  72.4813652  62.5138092  32.3137403
  73.8488722  62.6605177  32.9457116  43.1342030  22.6462841  54.9313307
  42.7811241  22.7036691  55.8191776  44.0838718  22.6662683  55.0494814
  19.6488798  71.2058973  53.8450146  19.2411995  71.3630390  54.6966791
  20.4712009  70.7615852  54.0514374   7.5958925  23.6977601   3.7390226
   8.0101043  22.9723144   3.2716995   6.7043197  23.7282467   3.3920357
  39.3583941   8.7241584  39.2260718  39.2575288   8.9990371  40.1373911
  40.2833986   8.4909523  39.1472220  27.7035594  57.9160261  55.6656170
  27.6234412  57.1925068  55.0440598  27.6090980  57.5051117  56.5249538
  62.6999950  10.7952118  54.1564608  63.1697941  10.0185692  54.4603491
  62.2531366  10.5084610  53.3600187  22.0822906  77.0520496  39.4310784
  21.3420129  77.6241112  39.2286825  21.7471218  76.1669350  39.2879963
  35.8563352  23.5143185  58.9538479  35.8132410  24.3409657  59.4344997
  36.6195536  23.0653739  59.3174124  48.1117105   0.9267176  50.8205366
  47.4877787   1.5269823  51.2287283  48.2371998   1.2753835  49.9379730
  15.8841872  68.6033535  62.9941130  15.3103387  67.9371643  62.6157904
  15.7421029  69.3784571  62.4507380  55.6683207   5.4260910  42.4938393
  55.6435537   6.3791859  42.5788546  55.1005459   5.2374423  41.7466593
  41.6908503  69.0465498  60.3235674  41.3710165  68.7191868  59.4828701
  41.1818981  69.8419619  60.4801607  41.1474895   1.5170267  65.8002138
  41.3455343   0.6486345  66.1507940  40.2512121   1.4441930  65.4721642
   7.4743629  34.5629168  13.5194755   6.6629791  34.0554118  13.5375679
   7.2594321  35.3398848  13.0033779  19.8670864  79.4727468  59.1698074
  20.7102776  79.0264463  59.2477798  19.6012163  79.3255568  58.2621288
  19.2194748   8.0705404  58.7356138  19.9009037   8.7414265  58.6931944
  18.3983588   8.5624355  58.7293673  63.6386967  15.9906185  63.0567789
  63.1061506  15.3115928  63.4709644  63.0248499  16.7045784  62.8844786
  53.6562061   7.8175426  48.9310980  54.6014023   7.7645379  48.7895966
  53.3250904   8.2851702  48.1643391  50.8400583  10.6422746  64.3760729
  51.6545200  10.1523125  64.4893074  50.9236431  11.3868129  64.9718142
  51.7221546   3.9876434  67.9985905  51.5073776   3.9409381  67.0669651
  51.8868589   3.0794761  68.2522345  31.8425417   2.0113130  51.7590284
  31.7876983   2.4586925  52.6034689  31.0215807   1.5236223  51.6925907
  62.2344446   7.7662706  50.5095100  62.4614668   7.2173798  49.7589064
  61.3636541   8.1059474  50.3031778  21.0708833  76.4445210  35.1990986
  21.7400408  76.9481516  34.7356176  20.7020712  75.8654833  34.5320702
  22.7561617  77.4315357  33.0776334  22.3243666  78.1601334  32.6316166
  23.6679816  77.7098179  33.1635046  43.8483667  76.7632627  51.1659336
  44.8026943  76.7988157  51.1009359  43.6406898  75.8294392  51.1331844
  15.5077422  59.2559147  51.0374689  14.8938191  58.5222864  51.0039330
  16.3123977  58.8787937  51.3931942  47.6177645  11.4494848  64.1273832
  46.7050838  11.6966879  63.9785957  48.0897665  12.2817385  64.1556787
  62.5067139  14.5209956  51.6652203  62.0533609  14.1267180  52.4103689
  63.1500959  13.8633585  51.4010143  32.7909493  69.9336052  41.5339708
  32.4412179  69.5060587  42.3157167  32.1607947  69.7245455  40.8444548
  66.4435434   9.3115765  49.0860891  67.0352840   8.6950141  48.6548996
  66.9868517   9.7441798  49.7448015  65.5237532  44.4753504   8.4228545
  66.3036776  44.2318106   7.9242218  64.9614334  44.9177647   7.7870113
  62.7830076  16.7246878  42.4154663  63.5176754  16.2028921  42.7383041
  62.1842623  16.0838151  42.0320368  25.5131626  80.6029510  42.5140905
  25.7231832  80.5735016  41.5806818  26.2407207  81.0841465  42.9082298
  47.1849155   3.4299499  20.8625174  47.4882555   4.0662149  21.5101171
  47.5123024   2.5889224  21.1814618   9.5872366  70.4549503  50.7235909
   9.0016705  69.7238445  50.9206438   9.0058190  71.2100220  50.6338453
  73.4250021   4.3805572  58.3442211  72.7615786   4.8564020  57.8445530
  73.8585329   3.8239282  57.6973486  35.1106429  80.8150482  50.4056787
  34.1831160  80.8052158  50.1694059  35.3894281  79.9034071  50.3195333
  24.6103215  74.7779512  35.4434943  24.4994497  74.3396664  36.2872052
  24.5706844  75.7114410  35.6514788  47.3126602   2.3087536  56.4961338
  47.6196957   1.9266137  57.3182869  46.8018627   1.6119158  56.0841465
   2.6735073  36.6181159   0.9246150   3.3807993  36.2672019   0.3834787
   1.8787295  36.4504075   0.4182220  26.5129757  12.7671349  41.0065889
  25.5744767  12.8155065  41.1885595  26.8117142  13.6756718  41.0459232
  16.5118492   2.7842405  63.0021667  16.9134331   3.3169007  63.6886311
  17.1992898   2.6842311  62.3436403  45.3356123   3.1648076  46.0277843
  44.5161963   3.5540700  45.7223940  45.8588457   3.9096224  46.3239431
  78.4978771  23.2584810  23.2358694  78.2999372  22.3569727  23.4895134
  78.1069040  23.3542919  22.3674273   2.8787753  69.9571609  37.7508593
   2.6933384  70.1998234  36.8436861   2.0168567  69.8893404  38.1616235
  20.0569630  79.3284321  51.3095999  19.7205985  80.1658344  50.9904623
  20.5928755  79.5591116  52.0684242  12.1619976  76.2593365  51.5049505
  11.4608347  75.7846451  51.0585546  11.7411983  76.6380119  52.2768116
   3.6053476  36.0390592  11.5872908   2.6981592  35.7338858  11.5978360
   4.0368789  35.4850197  10.9368658  42.8638458  17.7843404  55.1318216
  42.2000980  17.2225916  54.7316837  43.6958742  17.3633993  54.9155664
  53.0746651   8.8371557  27.7378345  53.2588673   9.2906058  28.5604429
  52.1227694   8.7370390  27.7274776  17.3475528  13.8453615  54.1472816
  16.4736068  14.1888440  53.9616203  17.2932243  13.5266566  55.0482273
  23.1596494  52.4908495   3.8316050  22.8998709  52.6887989   4.7313607
  22.5576663  53.0018568   3.2905695  37.5764942  80.5937195  65.8737278
  37.8772402  80.8391666  64.9987793  37.2192478  79.7122765  65.7656860
  67.3130322  52.0135832   3.8125473  66.6482735  52.4793625   3.3052239
  67.5635386  52.6291847   4.5013988  11.4648283  65.9630728  55.7532978
  11.2373722  65.0418711  55.6272697  12.2916138  65.9418774  56.2351751
  36.8437409  44.1333246  65.5187130  37.0970678  45.0503778  65.4134798
  36.1427426  44.0036726  64.8799467  24.7914147  73.1812572  20.7624388
  24.9260807  73.8784790  20.1205850  25.4024005  72.4927664  20.4999352
  58.5108519   9.6497440  26.2415314  59.1606426   9.6348053  25.5388379
  59.0050602   9.4240451  27.0295954  49.7965813   1.8674584  66.5771389
  48.9195442   1.4915267  66.6527510  50.3157806   1.3972341  67.2294855
  82.5767612  61.8891525  66.4665031  82.1945477  61.2549877  67.0731211
  82.5814056  61.4395475  65.6214809  39.0108848  19.0745187  54.1550064
  39.8849368  19.4186282  54.3390036  38.4200978  19.6476352  54.6436167
  49.8480988   4.7199285  50.1715374  50.5736494   4.9765220  49.6023560
  50.2187109   4.0481710  50.7439232   1.7476808  61.5571547  35.9595084
   2.6931921  61.4461231  35.8599448   1.5538900  61.1960316  36.8245339
  23.4654403  71.0838890  49.5077562  23.1778574  71.1484241  50.4184484
  24.3556929  70.7363749  49.5617676  11.1146593  80.2430820  48.8836241
  10.7306266  79.4769192  48.4572983  11.2613130  79.9656153  49.7879124
  23.1363273   6.2074977  36.4045334  23.0191922   5.9384292  37.3156404
  24.0200734   6.5740186  36.3747621  65.4706287   3.3408684  21.6321325
  65.6302977   2.7543956  20.8926821  65.1891804   2.7619433  22.3405576
  38.0115390  17.0989609  52.5378180  37.4834180  16.5343130  53.1021690
  38.4537554  17.6952803  53.1420326  17.9505610  74.2529202  50.0831223
  18.0327880  74.7435331  50.9009075  18.8218617  73.8849545  49.9359274
  19.9805748  74.0430737  53.6259937  20.6164408  74.1882658  54.3265867
  19.4502294  73.3075476  53.9325333  73.7886429   0.3206856  55.6939507
  74.0417290   0.5279054  54.7943735  74.4856930  -0.2525930  56.0128593
  45.9676981   2.5399682  37.2559214  45.2007866   2.0549121  37.5605440
  46.6991138   2.1636118  37.7454329  48.2516432  13.4493518  42.0412493
  47.9035187  13.4359181  42.9328012  47.7501154  14.1340065  41.5985870
  35.6269956  13.4099221  47.7990532  35.0478482  13.6946988  48.5059643
  36.3238764  14.0658796  47.7814198   9.9866170  72.6426840  56.8845844
  10.4944265  71.9843721  56.4102602  10.4867899  73.4520864  56.7800426
  50.0597239   2.4778558  55.2449512  49.3522882   2.2923648  55.8624935
  50.4935122   1.6342041  55.1172256   6.8327606  62.8841400  14.3280625
   7.7582330  62.7027178  14.4918263   6.5985030  63.5429287  14.9817848
  22.0312977  79.2237139  56.1402416  22.2740936  78.5223913  56.7447519
  22.4813628  79.9978781  56.4783812  55.3813171   1.9626053  50.2018595
  55.9476089   2.0886396  50.9632158  54.5708561   1.6034867  50.5630016
  58.5015106   0.9368242  53.0570745  58.9989805   0.3893926  53.6645889
  58.0759811   0.3144477  52.4673223  19.7355056  70.3382921  39.0597820
  19.1750336  70.1266336  39.8063111  20.5849981  69.9575138  39.2824936
  59.6793270  12.6463509  64.2782736  60.0918388  11.8255770  64.5473385
  59.5128775  13.1108940  65.0984716  14.3288529  38.9623386   0.2745015
  13.9705670  38.7592727  -0.5895751  14.1153443  39.8853142   0.4114492
  73.7879826   7.2046170  70.0438603  73.8767399   6.3411269  69.6404483
  73.4912743   7.0230088  70.9356084  45.4345608   1.9561093  59.9340820
  45.9450483   2.2457941  59.1779613  45.8584166   2.3741734  60.6836176
  21.1857009  70.2717161  48.4487629  21.8831563  70.7951736  48.8434553
  21.2817883  70.4155779  47.5073242  62.0938444  13.0657828  48.1567764
  61.8776941  13.9433897  47.8416300  63.0031919  12.9324663  47.8892994
  54.7144461  58.9040136  11.3256562  54.4848680  57.9873657  11.4782393
  54.1058111  59.3979979  11.8749988  59.8786259   9.2790329  28.4602976
  60.1847839   8.7914336  29.2249823  60.3647470  10.1030231  28.4912705
  34.7146344  14.2285693  20.7642317  34.7554779  13.3149397  21.0468030
  33.7952471  14.4719172  20.8725929  15.9325051  57.1381569   2.3610701
  15.1180744  56.6699266   2.1775106  15.8508325  57.9597235   1.8767259
  19.2395616  16.6096878  48.2673931  19.5894074  17.0434833  49.0456343
  19.0799868  15.7082534  48.5470009   9.7519773  70.5532551  66.5263700
   9.2617029  71.3102102  66.8471193   9.7545439  70.6553316  65.5746317
  57.0748281  62.0292139   8.6387902  57.0497751  61.2155628   9.1423541
  57.6057196  62.6231050   9.1695255  76.3913965  29.6273875  21.4066577
  75.5137587  29.7034454  21.7810869  76.8149137  30.4593587  21.6180587
  82.7559376  11.7370081  56.9979000  83.4142017  12.4083495  57.1774149
  81.9248676  12.1457028  57.2398186  57.2915173  11.1704695  48.6375380
  58.1930590  11.4738297  48.7444258  56.8261719  11.5318799  49.3918991
  66.8603897  39.1463923   5.1678419  66.9633341  39.6899915   4.3867317
  67.3139477  38.3311129   4.9537447  38.6328530   2.8293371  55.4082775
  38.4634995   2.2093831  56.1176491  37.9073811   2.6986426  54.7976685
  49.6785307   6.8353051  47.1347332  49.5731497   7.5946593  47.7078915
  50.5596256   6.5127420  47.3240900  48.5723114  32.8492236  68.9809847
  48.7905264  33.0381966  68.0683470  48.8646698  31.9477344  69.1154289
  70.8890152  51.1673212   4.9755046  70.1360846  50.5811310   4.8999113
  70.8532667  51.4881277   5.8766347  31.6019654  13.6915779  36.7746305
  30.7872081  13.2027543  36.6586423  32.1824121  13.0842531  37.2334027
  27.0303297   1.1074267  52.2829914  27.2561359   0.1819155  52.3761177
  26.1043835   1.1048181  52.0404053  45.0545835   2.9591298  68.8436937
  45.5695486   2.8512365  68.0440712  44.2054701   2.5690091  68.6362076
  61.9951773  17.5603998  52.2477245  62.8136778  17.5254154  51.7526817
  61.8763161  16.6696095  52.5772667  61.7772627   4.0235668  49.1395187
  61.3457680   4.7395191  48.6731958  61.0620213   3.4461945  49.4065332
  40.8682108  15.9074020  67.5222540  40.3200102  15.3634989  68.0878353
  40.4588127  16.7721331  67.5516748   2.9716009  45.5817366   5.3008687
   2.3703930  45.5025196   6.0414803   2.8139055  46.4611530   4.9573654
  49.4775200  65.6174088  37.6480317  48.5990429  65.3294373  37.3998737
  50.0210333  65.4107189  36.8876958   0.3037442  72.7097702  52.7445364
   1.0737655  72.8315544  53.2999325   0.4634059  71.8815470  52.2919989
  40.3375912  71.4148331  60.0872231  40.4175758  71.9004536  59.2662430
  39.4319439  71.5572357  60.3624678  43.5571814  74.0597248  51.2324286
  43.4894705  73.6823511  52.1094894  42.8563261  73.6378336  50.7353973
   0.5306467  48.5548687   8.9341396   0.2411690  48.3688354   9.8273504
  -0.2790155  48.7069035   8.4467334  37.3226404   7.0651603  41.4678383
  37.3374915   6.8723315  40.5303812  36.7924881   7.8587943  41.5407515
  67.7623415  12.3033118  41.5630341  67.6252937  12.2184467  42.5065660
  67.5126886  13.2059073  41.3649750  25.0964665  62.4035931  63.1725025
  24.3069816  62.9394245  63.0961418  25.0062060  61.9631720  64.0175533
  20.9829664  75.0770950  44.7824240  20.4178119  75.2197313  45.5416918
  21.8710494  75.1960373  45.1191616  31.3038182  18.0304646  37.8166032
  31.1870456  18.7617576  37.2101307  30.8745742  18.3169794  38.6227608
  42.9647493  20.4043818  63.4290838  43.3349228  19.6824110  62.9211855
  42.8346014  20.0394511  64.3043661  54.4684935  14.3612826  34.7619796
  55.1497078  14.8630536  34.3143129  54.4986963  14.6709800  35.6671906
  27.4510717  63.1685400  49.5144320  27.5623894  64.0218306  49.9336433
  26.6501451  62.8144646  49.9009275  58.0471134  79.6214151  54.0288496
  57.2584200  79.3038654  53.5891199  57.7226257  80.0609016  54.8148441
  52.9272366   9.0980148  65.6707096  53.4158087   8.3578986  66.0309267
  52.8346205   9.7043109  66.4055967  81.1762238  63.4987640  51.4110231
  80.3230381  63.1444979  51.6616154  81.3819218  64.1350174  52.0959330
  42.0544434  15.4457605  45.4490995  41.6423702  15.9351027  44.7370768
  41.5778017  15.7172632  46.2335300  48.1503725   5.0896621  60.0866127
  47.1978569   5.0659883  60.1781368  48.4604406   4.3572265  60.6191778
  64.7597361  20.8934426  55.1796246  64.2230892  20.1463723  54.9148083
  65.6550121  20.5548096  55.1864100  43.4151697   9.8190087  41.1567545
  43.4680367   9.8037350  40.2011395  43.0962849  10.6971800  41.3649845
  47.2991276  53.0383205   1.8431568  47.6173973  53.6248255   2.5294128
  46.3461733  53.0633688   1.9296303  67.0802832   1.9501248  63.9235353
  66.4695978   2.0735009  63.1968498  66.8617058   2.6479518  64.5411873
  24.6173358  72.3431778  53.9480162  25.2338886  72.5070190  53.2344007
  25.1657867  72.2886086  54.7306108  40.5976009  27.3304534  64.0952873
  40.2744341  26.5059495  63.7319851  41.5427542  27.3037100  63.9462996
  73.5863829  51.0537624  10.9333313  74.0407801  50.6431532  10.1976967
  72.8886223  51.5678453  10.5270338  18.1975865  79.0026665  61.5065479
  18.6088479  79.4923735  62.2187853  18.8368571  79.0328836  60.7947540
  61.9840336   4.0663114  20.5419803  61.4067602   4.8293400  20.5698347
  61.5647888   3.4276178  21.1186409  32.8757763  10.1256120  53.3139658
  32.2889376  10.8694041  53.4504509  32.3081017   9.4306231  52.9808474
  56.5979958  74.0809870  29.0401936  56.0974932  73.5743904  28.4005928
  56.1665010  73.9043903  29.8761678  42.5836134   7.5147069  65.2277660
  41.9103289   7.3520577  64.5671129  42.8708458   6.6421759  65.4968739
  15.8281350  37.4127150  22.0464277  15.3232205  36.7255521  22.4812841
  16.1326826  37.0084429  21.2339950  56.8038177   0.1459272  48.6680031
  57.5966406   0.0098329  49.1867924  56.2211800   0.6388054  49.2457819
   5.3775764  78.7592554  56.4440060   6.0928506  79.3946457  56.4738894
   5.0419909  78.8182831  55.5495071  35.5127454  75.5485582  65.3920507
  36.2153864  75.2257681  65.9562588  34.7213173  75.4659939  65.9240818
  39.6474028  37.0189047  65.4434061  39.7539258  37.8366852  64.9574852
  38.7040472  36.8568778  65.4357290  43.8691330   9.2716020  51.5379047
  43.6398220   8.6682624  52.2447491  43.9200306   8.7187415  50.7581711
  29.9364138  65.6942129  50.9181547  29.1724157  66.0038042  50.4316425
  30.6768584  66.1475849  50.5151320   4.0532753  48.8956165  13.5622311
   3.8694584  49.7612143  13.1972873   3.9591673  48.2980251  12.8204358
  60.1082325  23.8984466  60.7855844  60.8809233  24.0872502  60.2531052
  59.5917320  23.2941771  60.2523756  50.4368067  23.4123969  61.1097383
  50.7794714  22.7620101  60.4967022  51.2161922  23.8304377  61.4758492
  54.9031115  22.0123816  57.6642179  54.0718269  21.8903184  57.2056341
  54.7689629  22.7948046  58.1990576  34.9027991   7.9286838  63.0994749
  34.3031478   7.1933049  62.9735088  34.3793464   8.5896629  63.5526133
  64.8985767  25.5111074  38.7334943  64.9162674  26.3656616  39.1643739
  64.3064880  24.9843860  39.2703652  60.9121609  21.7487001  39.1724968
  60.3129244  21.7367196  38.4261680  60.7831049  20.9005022  39.5969200
  58.6684895  15.7036376  54.7943306  58.3515787  14.9943376  54.2351437
  59.3004036  15.2841759  55.3782558  51.1260748  39.5601821  53.9464760
  51.8052435  40.0223255  54.4377899  50.3057671  39.8320532  54.3580675
  27.8531313  79.9818230  52.8445578  27.7886891  79.2160892  53.4152842
  26.9447327  80.2326107  52.6767731  66.8875837  19.2969096  60.5044889
  67.3806763  19.1907191  61.3180065  67.2754335  20.0665808  60.0880575
  57.5372028  34.4900203  49.4447756  57.4415302  33.5736942  49.7044373
  58.3293962  34.7847915  49.8939657  44.8767138  18.6182559  61.8528605
  44.8268843  19.2452621  61.1313248  45.3794384  19.0714490  62.5297022
   1.8160972  53.9077139  10.8051491   2.7433586  53.6751461  10.8534205
   1.3594201  53.0669355  10.7773948   2.6226383  50.7360506  16.9238341
   2.0912087  50.7138538  17.7196491   3.5264042  50.7230139  17.2389042
  70.8930826  24.8040795  46.7314720  71.3498354  24.6951365  45.8973646
  69.9645853  24.7523832  46.5046453  41.0427904  80.8633518  53.5897064
  41.2445688  80.3331470  52.8187323  41.6339064  80.5353260  54.2673635
  47.0488453  19.3979442  56.2126541  47.6899147  18.6871481  56.2180471
  46.2187529  18.9734674  56.4294529   5.9873301  50.1383972   0.9437548
   6.6944164  50.7637882   0.7851876   5.6128991  49.9756384   0.0779931
  66.0231686  18.8108253  45.6276751  66.7648363  18.4615982  46.1218405
  65.6833220  19.5192099  46.1744165   5.6570697  59.9799204  13.5520697
   5.6895286  60.4186535  14.4021797   5.4337299  60.6744862  12.9324520
  43.1031132  42.5247431  62.4400997  43.6885405  41.9767570  61.9173956
  42.9737329  43.3109140  61.9096041  69.1229773  42.2425508  61.0021877
  68.2943630  41.9354725  61.3700581  69.2918587  41.6529942  60.2672482
   4.1025180  71.8991613  17.4400806   4.4816568  71.8028784  18.3137023
   4.8580623  71.9306517  16.8532312  74.8812914   0.7338471  53.2205820
  75.8072329   0.4939370  53.1844139  74.6945286   1.0990211  52.3557091
  77.9838800  32.5306082  44.2220116  77.7808380  32.5776362  45.1562452
  78.9317036  32.6561952  44.1762829  41.0220766  12.0863307  56.9314909
  40.5942869  11.9720924  57.7801228  40.3910780  11.7457223  56.2974072
  59.4082069  51.8770266   5.9538877  59.0652847  51.5675735   5.1155096
  58.6432934  51.9088697   6.5284580  64.3867636  29.3910336  50.7953453
  64.3552399  30.3264165  50.9960794  64.5604753  28.9710116  51.6377449
  16.2943828  22.8001356  67.7165318  16.5372276  22.1165776  67.0920277
  15.3673935  22.6425457  67.8956604  85.5047512  41.7073011   4.0607795
  86.1132240  42.4459219   4.0401015  84.7437382  42.0099688   3.5653108
   6.8420017  33.8188720  65.5210447   6.7725772  33.5547543  64.6036243
   6.1290276  34.4454980  65.6444931  13.5363567  15.4509008   8.2044953
  14.1374421  15.8890867   8.8069242  12.7532005  15.2819037   8.7282676
  12.4409974  68.6036491  54.4609976  12.7302969  69.0310097  53.6548328
  11.4919603  68.7280083  54.4707346  66.4065409   3.6410439  50.1092863
  66.4054775   2.7188960  50.3659439  65.5247688   3.9489844  50.3187704
  67.8092098  49.7203016   0.4468835  67.1239948  50.3790331   0.3338106
  67.8835249  49.3023109  -0.4110160  82.8090668  63.7550402   4.3835318
  82.7153492  63.6584425   3.4358412  82.2740078  64.5184851   4.6005431
  49.1792488  29.4488811  51.8290567  49.2048979  28.9341426  52.6356649
  49.5930433  30.2799797  52.0620394  62.6268482  45.6105042  46.4728355
  63.2131910  46.2799263  46.1202717  61.7526388  45.8913040  46.2023830
  67.1796942   3.5178974  60.9089375  66.7784882   4.2707467  61.3430882
  66.6569471   2.7692151  61.1960649  22.8699803  49.5291758   4.0807971
  22.9705024  50.4738140   4.1982070  21.9819951  49.4233990   3.7394372
  74.9735737  12.3649478  64.2267275  74.9397612  11.6150689  63.6327839
  75.2261305  13.1008863  63.6691952  57.2569418  29.4276738  50.8550644
  56.5786552  29.0078020  51.3840866  57.9311419  28.7559152  50.7529736
  79.2347860  55.4184580  11.2828863  79.4925308  54.7970486  11.9638073
  79.5144463  56.2704134  11.6178298  53.2830667   4.0786371  44.2140579
  53.5074854   4.5598528  45.0104856  54.1274357   3.8224426  43.8430595
  67.9366064  22.1227407  34.4868708  67.6296806  22.9372954  34.8850250
  67.1489382  21.5853024  34.4033742  78.0675793  24.8094010  38.3646107
  78.1111336  25.4845762  37.6875043  77.2931099  25.0360942  38.8794279
  52.0191765   0.4569273  54.9283457  52.0568562   1.0750851  54.1984892
  52.5336218  -0.2942344  54.6328211  25.2286148  43.0611801   0.5482131
  25.9623194  43.6441374   0.7433261  24.9639797  43.2984400  -0.3405540
  71.3387680   4.6006536  64.0782404  70.7109022   4.2332938  63.4560966
  71.2637711   4.0423229  64.8521090  45.6744766  12.9463196  63.0717278
  44.8794413  13.3694339  63.3959532  45.7396936  13.2265759  62.1587992
  56.6286993  12.6602662  22.5101304  55.7698631  12.4635756  22.8842258
  57.1633625  11.8952465  22.7225232  50.0986576  15.9502721  44.0321112
  50.8464813  15.5636954  43.5765409  50.2860165  16.8888474  44.0464687
  53.6159468  36.5874410  51.2216091  53.0596972  36.8842578  50.5013895
  54.3758583  36.1953664  50.7914400  63.3175230  32.8828835  56.6198635
  62.6079178  33.4576321  56.3328838  63.1279850  32.7104855  57.5421333
  71.0066748  29.2992878  39.8839974  71.4938354  29.9011683  40.4467106
  70.2076387  29.7757530  39.6587014  24.6959782  77.4835062  55.4584312
  25.0346851  77.4336624  56.3523149  23.8553786  77.0271254  55.4950237
  70.8967781   6.8913323  50.3536701  71.6811848   7.3144871  50.7027817
  71.0326433   5.9588814  50.5219221  52.5337791  32.3430324  55.7687664
  52.2200346  31.4500499  55.6260109  53.2806158  32.2430038  56.3590670
  68.3741140  27.1598196  55.3771925  67.4876595  27.0582986  55.7237816
  68.8861179  26.4888310  55.8287001  68.6496544  67.5644302   5.3714097
  69.4003439  67.5488567   5.9650874  68.8960648  66.9754791   4.6582118
  62.7001905  10.3811479  62.3317957  62.3831320  10.8742082  61.5750933
  63.5300541  10.8000481  62.5600052  60.5733776  11.8073738  40.1734734
  60.0635099  12.3100805  39.5382142  60.3393030  10.8954740  40.0006151
  64.4745970  17.7497828  59.3947506  63.7797260  18.3905983  59.2439365
  65.0239754  18.1467998  60.0706148  40.3470612  34.5380020  67.3631334
  39.6340728  34.1405368  67.8630352  40.0349760  34.5365262  66.4582396
  55.4576683  40.2337551  56.5466738  56.0255527  39.8940420  55.8550549
  55.6406403  41.1730862  56.5670109  62.1353054  27.8651619  46.0575104
  62.2473478  28.1988788  45.1673889  62.9623652  28.0672717  46.4949512
  69.9044085  28.9807868  54.0427780  69.4075775  28.3894205  54.6081781
  70.0477457  29.7606659  54.5789433  36.3026595  41.6560316  70.4667759
  36.6106224  40.8096552  70.1426744  36.2697482  42.2128153  69.6888685
  82.0175171  49.5851707  12.7349579  82.2273445  49.1738272  13.5734093
  82.0214462  48.8632870  12.1063876  53.6740303  10.6411922  52.5065660
  53.3151293  10.9248614  51.6657591  53.1674910   9.8609805  52.7322245
  62.4915981  34.2534471  38.3132887  61.6800976  33.8081193  38.0695915
  62.9470015  33.6292338  38.8782597  48.0616570  21.6185212  59.5118046
  48.4597397  21.2907314  60.3182268  47.3775196  22.2183776  59.8090553
  72.6271820  53.9162874  40.6876612  72.6331234  53.5082245  41.5535069
  72.0003843  54.6354580  40.7661200  51.7178917  35.5007815  42.1725035
  51.0776997  35.1035595  41.5820837  51.4317513  35.2385569  43.0474854
  24.7302341  64.2704821  46.1228132  24.5461798  63.8937855  45.2623177
  24.2325902  65.0880146  46.1377954  61.0022688  16.7306685  57.6719046
  61.0902834  15.8389199  57.3353481  61.5777922  17.2547972  57.1148682
  45.0989103   5.6225598  70.0878334  44.1904068   5.6532282  70.3876972
  45.0894356   5.0034004  69.3579102  52.6303053  36.3039279  60.7118750
  52.0414066  35.5800295  60.9249544  52.2873259  36.6581535  59.8914337
  73.9825106  72.5328016  -0.3675703  73.1698799  72.3470068   0.1029014
  74.6002817  72.7940083   0.3153380  76.3176441  52.5612783   2.0999838
  75.4938650  52.3981047   1.6406454  76.8860912  51.8375397   1.8367296
  63.0297518  18.7044060  54.4977617  63.7026978  18.0329490  54.3858576
  62.3827076  18.5103846  53.8195848  48.1714201  26.8201494  69.7714996
  48.5225964  26.6939330  70.6529665  47.2477388  27.0299530  69.9094486
  78.5392189  47.8148937  39.5100260  77.9579353  48.5574102  39.6743798
  79.3308640  48.0153465  40.0093699  35.7233405  15.0338078  67.9732037
  35.6721663  15.8125377  67.4189520  35.5026913  15.3487754  68.8497543
  65.6380033  67.8677511   7.6164496  66.0705471  68.0734921   8.4451878
  64.8603439  68.4257793   7.6071602  51.0787582  29.3028951  43.8171053
  50.9116411  30.0184631  44.4305134  51.7144680  28.7458658  44.2663527
  67.8154087  61.2369871   0.0342651  67.9301167  61.4857864   0.9514201
  67.7596664  62.0696259  -0.4346038  70.5329084   9.6820396  68.8593245
  70.8682442   9.6003568  67.9665136  70.0266171   8.8818228  68.9991570
   3.9957616   5.1172286  63.6980581   4.3951327   4.2480457  63.7334871
   3.7919796   5.3245312  64.6100521  78.1978178  81.2682343  64.7332191
  78.0512953  81.2468529  63.7875414  78.5445309  80.4006958  64.9415445
  52.1467781  25.8426666  64.3206072  53.0931902  25.9783483  64.3666553
  52.0295000  25.2121687  63.6100101  18.8765442  64.3028736   3.9541221
  18.6154020  64.9827242   3.3329582  19.2670119  64.7829008   4.6844250
   3.0264547  21.4319777  59.5087528   3.6853856  21.7546940  60.1234865
   2.9824841  20.4907203  59.6770716   2.4182236  62.7103233   0.0904952
   2.9876986  62.0336723   0.4566484   1.7337550  62.8293896   0.7489462
  72.1624565  34.4602036  50.6098032  71.3357544  33.9841056  50.6880474
  72.8361416  33.7845707  50.6866026  51.8733740  26.6476107  58.5526752
  52.5210476  27.2881031  58.8468266  51.0298729  27.0767736  58.6960602
  53.9610052  19.0133965  38.8660669  53.6322069  19.2822599  39.7238755
  54.6496534  19.6468389  38.6642241   3.8205510  74.8956585  53.4672642
   4.1578490  74.1660070  53.9869452   3.6370057  74.5137119  52.6089764
  44.1232634  72.1605015  48.2367039  44.1338062  73.0103493  47.7963877
  43.2953310  72.1498346  48.7169552  32.5395703  78.4233141  42.2898102
  32.9690576  79.2688036  42.4198866  31.8480372  78.4016705  42.9512835
  76.7621231   6.1463994  54.1412640  77.3450089   6.2007982  54.8985767
  76.7748785   5.2214664  53.8951588  56.2167692  11.5295911  51.3360119
  55.5243969  11.1730790  51.8925667  55.7847214  12.2140419  50.8250380
  54.5565414  36.2672544  36.9047523  55.0110149  37.0826268  36.6929626
  53.6415577  36.5251517  37.0166945  59.1072978  72.6286903   0.4705484
  59.7240700  71.9004789   0.3961570  58.7237324  72.7078739  -0.4028600
  25.1433730  45.3820324   4.3810317  25.1632404  46.2162638   4.8499632
  25.3931975  45.6052828   3.4843829   3.9506108  20.6998062  63.8548517
   3.2509902  20.6817698  64.5078754   4.5740756  21.3444090  64.1895342
  12.8655648  39.2848372  49.5520926  12.8498864  38.7182140  50.3234053
  12.5263429  38.7361693  48.8449001  79.4685555  40.4422474  13.1434155
  79.4320679  40.8411837  14.0127563  78.7153482  40.8085299  12.6800001
  75.7222939  38.2975626  54.4705391  76.3480139  38.6427593  55.1073694
  76.1818314  38.3468390  53.6323071  10.7769275  71.6632032   7.5315815
  10.2492142  72.4228954   7.2853786  10.7605946  71.6602421   8.4886372
  55.7879972  32.8064799  54.7444582  55.9897566  33.6478138  55.1539469
  55.3881979  32.2894740  55.4438114  15.7673824  68.1054306   3.0658180
  15.6863165  67.5415945   3.8350725  16.2691224  68.8601542   3.3738446
  39.3766093  11.0622418  54.9851322  39.8208809  10.9382892  54.1463900
  38.5581279  11.5043414  54.7595978  29.8072910  64.2379999  20.2723527
  29.3041039  65.0406694  20.4092908  30.5358577  64.3037844  20.8896804
  20.3936362  43.6615801  65.4248762  19.9002552  44.4188786  65.7399988
  21.2393880  44.0212011  65.1572800  45.3115511   4.6330634  53.9037657
  45.2800274   5.4551548  53.4144735  46.0680246   4.7276965  54.4825792
  55.0927496  13.1103337  62.9901171  55.4095459  12.3134923  62.5647783
  55.4292870  13.0544579  63.8844585  20.0319862  28.1554604  60.6842375
  20.5852747  28.5095358  59.9880075  19.8516738  28.9051032  61.2514734
  77.2394943  43.3899927  44.7055101  77.6686621  42.6153040  45.0686932
  76.9635820  43.1221390  43.8289499  46.6953707  76.6022968  50.2424431
  47.5765133  76.8642235  50.5093050  46.6566753  75.6647205  50.4313421
  59.7503614  17.8554094  45.5799484  60.6203699  18.2243276  45.4275751
  59.7280312  17.0642686  45.0415897  30.4678822  73.0998468  62.6906347
  29.8099828  72.4089336  62.6129198  31.2925291  72.6317358  62.8212500
  42.7881479  77.3441553  40.1186848  42.8817797  76.6939783  39.4224572
  42.0838594  77.9180670  39.8173070  64.6597767  23.8017845  55.2184296
  64.9050045  22.8800058  55.1382971  64.3421602  24.0416741  54.3479061
  71.1911964  29.7973514  34.2582202  71.4832401  30.1183629  35.1113892
  70.3184128  29.4403291  34.4225883  73.5004282  24.7642541  57.8133106
  74.3318701  25.2370453  57.8507328  73.7480450  23.8405800  57.8550434
  74.2750835  65.1647520   2.3039989  73.8330698  64.9393272   1.4854378
  74.0301275  66.0758877   2.4654286  56.7319012  16.3694441  56.7968464
  57.1869993  15.9617102  57.5336456  57.2864914  16.1821651  56.0394955
  65.9193897   6.1853790  54.7972059  66.0703182   6.7126942  54.0127373
  66.0500860   5.2824354  54.5076466  71.5308380  16.9729781  53.1408119
  70.8748913  17.0399332  53.8347054  71.1038685  17.3480749  52.3705959
  55.7181311  28.4446001  53.5687828  56.0428047  27.6666665  54.0222597
  55.6322145  29.1045094  54.2568064   3.0269819  40.1540327  37.3291492
   2.6759702  40.3742409  38.1920123   2.6555359  40.8141327  36.7438865
  50.5974007  19.6289003  64.3618250  50.3473759  18.8476956  63.8684273
  50.1536322  19.5322335  65.2044106  69.6637344  12.5222027  53.4651566
  69.1086483  12.7545106  52.7207470  69.5288372  13.2304716  54.0947533
  29.6389437  77.0286655  25.6126428  29.5937848  77.9497910  25.8690047
  29.8035550  76.5601015  26.4309239  77.9149055  34.8949552  54.1736746
  78.4673405  35.5656028  54.5752668  77.4107361  35.3657818  53.5100698
  50.6696606  13.4724569  33.1486011  49.8518133  13.1818938  33.5522556
  50.3938389  14.0568876  32.4424887  56.2802553  74.2424059   1.6314827
  55.9119272  73.8040447   0.8644071  55.8397245  73.8327265   2.3760119
  51.2493372  37.0352054  52.8792334  52.0722389  37.0306158  52.3903084
  51.2061834  37.9091454  53.2672977  26.8596983  76.4090109  61.4766550
  27.2907376  75.8130217  60.8640909  27.1702671  77.2783566  61.2236309
  28.3999109  31.3482237  60.0698900  28.8683486  31.4039922  60.9027672
  28.3180308  32.2567391  59.7798443  65.1597595  79.5449924   2.4995126
  65.8621645  78.9619064   2.7873775  65.1945114  79.5081425   1.5436536
  48.7704563   8.2771295  34.6903968  47.8426552   8.0458325  34.7341919
  49.2130423   7.4538869  34.4839501  58.4259939  19.2313588  43.1486797
  58.9785957  18.6720753  43.6946344  57.7480745  18.6444628  42.8136969
  57.3616791  10.0176537  46.1413574  58.2027531   9.7558880  46.5159416
  57.0383930  10.6987178  46.7311621  80.9290504  31.4035010  55.6650257
  81.0559940  30.5192637  56.0088873  80.2286053  31.7716646  56.2036133
  80.6138229  51.5995789   1.8010746  79.7473574  51.1929893   1.8133645
  80.7111454  51.9290400   0.9076468  61.1369848  16.7827511  36.3731289
  61.2417841  17.6960599  36.1064529  61.3790798  16.7743421  37.2991681
  70.8553171  17.7439272  58.1177235  69.9240780  17.5617969  58.2436466
  70.9225893  18.6971438  58.1732702  50.2920103  29.5906758  62.8394842
  50.3263330  30.5026078  62.5506353  49.3591452  29.4119000  62.9579401
  55.5438519  53.8089895   2.6054177  56.0228205  53.9433527   3.4231985
  55.3735733  54.6927738   2.2795936  50.9345818  15.3790367  65.9243059
  51.0600853  15.8931291  66.7219210  50.5620289  15.9981179  65.2964735
  35.9137869  64.9726534  52.6730251  36.8587065  65.0936174  52.7664232
  35.6054735  65.7892036  52.2800541  10.6147873   0.6528302   3.6249831
  11.5198171   0.9124526   3.7974575  10.2020645   1.4418358   3.2737532
  59.2462587  27.6098013  36.5637350  59.0013170  27.1833491  35.7425308
  59.5408058  28.4821486  36.3020420  60.9031916   7.3767102  38.8885498
  61.5318727   7.6320976  38.2134438  60.6059694   6.5066743  38.6222291
  19.9633074  51.4812851   7.3594517  19.4018149  52.2113562   7.0987791
  20.0280762  51.5569830   8.3114529  64.9009705  26.4171815  45.9417820
  64.3487024  25.6359649  45.9112644  64.3831396  27.0937634  45.5055285
  24.0246797  61.1531258   4.6325046  23.2115746  61.2781668   4.1431588
  23.7650609  61.2257624   5.5509567   5.3340334  36.8800116  22.9685068
   5.3981364  36.6970992  23.9058781   5.1515228  37.8183722  22.9195142
  69.9508572  31.8853426  45.5924320  70.3044462  31.3477540  46.3010931
  70.2409649  32.7739882  45.7982922  50.0409746  37.8822422  49.0804911
  49.3357325  38.0904555  48.4677029  49.7877407  38.3181643  49.8941755
  63.3552027  53.9056301  50.2919817  63.4749460  52.9988909  50.5743217
  62.4135733  53.9869404  50.1404762  79.3758678  72.4661732  49.9326611
  79.4413662  72.9769278  50.7395458  80.1861191  72.6587772  49.4608355
  67.9254627  23.1050563  61.4294910  67.0125532  22.9022670  61.6337013
  67.9297161  24.0474153  61.2616444  53.1021500  29.5388699  63.0064106
  52.2632170  29.7505569  63.4158182  52.9783821  28.6603665  62.6470470
  64.3873358  49.9672699  63.7667036  63.7594223  50.6895494  63.7504435
  64.9407530  50.1137066  62.9995537  56.3668394  22.9156852  27.9831243
  57.0617056  23.5717201  27.9282618  55.8088350  23.0939484  27.2261000
  81.4076614  42.6208401  45.4554224  82.2333527  42.4156237  45.0168324
  80.9782982  41.7726135  45.5667019  63.6362171  47.5716639  43.3363724
  63.4984779  48.3979988  42.8733063  62.8229237  47.0845366  43.2041073
  70.5074883  40.4962826  62.5170946  70.0814486  41.3293028  62.3151159
  70.8538485  40.6127214  63.4018040  76.7230701  35.6252861  40.1696968
  75.7787657  35.7218289  40.2930021  77.1093082  36.0506296  40.9352875
   2.2870038  29.1365647  64.4887257   2.7566746  28.3608842  64.1821957
   2.6767677  29.8613310  63.9998150  59.0631247  30.8762407  52.9031754
  58.3570719  30.5866146  52.3253870  59.5406437  30.0749779  53.1180906
  82.4575043  30.6638622  66.6377687  83.2761288  30.8323193  66.1711740
  82.5837040  29.8046398  67.0403147  67.1947813  47.3812199   2.2096856
  67.0475435  48.3239031   2.2864558  67.0214128  47.0395041   3.0868441
  85.3263187  31.8178177  39.7360611  84.9518490  31.2803340  40.4339981
  84.8958302  32.6674724  39.8309255  47.9232788  29.4157529  55.4818964
  48.8745213  29.3124890  55.4553938  47.7642822  30.2727675  55.0863218
  45.2881241  24.0919590   1.8632391  44.7894716  24.4398141   2.6025450
  45.9636641  23.5460973   2.2656189  75.1575518  46.3290405  48.7359285
  76.0448551  46.4863682  48.4131765  75.1846933  46.6007757  49.6533442
  67.4489594  57.3280859  66.6500092  66.5618849  57.5507402  66.3676023
  67.9172850  57.1343327  65.8379936   6.7423999  34.6050262  69.6403885
   7.1028167  35.4590964  69.8789215   5.8272135  34.7832799  69.4238472
  82.7745724  33.4476614  39.6530557  81.9766808  33.0132532  39.3515873
  83.2392883  33.6797929  38.8490748   3.6277008  48.6227655  51.8504047
   3.3004379  49.4488382  51.4944077   3.6940274  48.7775803  52.7926731
  71.3147736  35.6869555  56.4637423  71.7429686  35.6213331  57.3173046
  71.1785030  34.7788072  56.1936903  81.5733242  40.9383535  52.3274231
  81.2568378  41.7093277  52.7982378  82.2245502  40.5511045  52.9123783
  72.9895067  54.5085812  53.3480644  72.4928904  53.7929583  53.7449169
  73.7591982  54.6057367  53.9087486   0.3105175  49.0695620  38.0011702
   0.8534627  48.2884455  37.8948736   0.8808826  49.7943687  37.7450991
  56.0989666  28.8523769  66.4566231  56.1289835  28.7809968  65.5025578
  55.8631611  27.9740453  66.7552185  37.4982023  71.3291836  11.9346154
  36.5458798  71.4220333  11.9082797  37.6456094  70.3844357  11.9788051
  66.7322636   8.5822403  22.7941561  66.2063694   8.3353764  23.5548949
  66.4589262   9.4775635  22.5943685  77.7058315  35.8715153  45.0117970
  77.9989529  35.1833224  45.6090403  77.9353428  36.6878104  45.4558897
  59.6698666  43.9484787  64.2021465  59.8637438  44.5203161  64.9448729
  59.5812798  43.0768442  64.5876837   2.0515335  38.1307721  47.8276205
   1.3022795  37.6345277  48.1571531   1.7071308  39.0104866  47.6736069
  78.2662821  62.0316458  17.8706503  79.1480875  61.7325211  18.0923998
  77.9890156  62.5438404  18.6302626  50.5212641  23.6294985  49.8781490
  50.2195597  24.4328189  50.3022766  49.9559832  23.5366797  49.1112900
  67.7873898  44.3892336  60.1897955  68.1587791  43.5909271  60.5653048
  68.4948492  44.7561455  59.6596050  60.4095268  44.6306467  48.6267757
  61.2582827  44.1984129  48.5317802  60.0784254  44.7075510  47.7319622
  60.9275436  62.1691322   5.5336577  60.0211334  62.4682617   5.4617149
  61.2323236  62.5267982   6.3675737  59.3397951  15.2861297  34.9045491
  59.9340439  15.8039975  35.4476094  59.9034405  14.8991442  34.2346430
   1.9132471  39.3598843  69.6003485   1.2257276  40.0249958  69.6346712
   1.8329950  38.8894105  70.4300737  45.2466631   1.5813886   7.8356749
  45.3590822   0.8730499   8.4695911  45.4957438   2.3723860   8.3137059
  81.0117054  28.0144119  49.9333334  81.2871456  27.1056557  50.0538588
  81.5991402  28.5193205  50.4956627  26.8003154  78.3210087   3.7371367
  27.3645234  78.3810568   2.9662314  25.9586072  78.6715603   3.4458044
  64.0981293  38.8508201  60.4228640  63.8868952  39.0309286  59.5067978
  64.5685673  38.0174923  60.4008150   1.3087855  30.7718229  30.7401252
   1.5591449  31.6767788  30.9261465   1.3887824  30.6917334  29.7896433
  75.5582952  17.0723200  62.6755333  75.5285597  16.1161458  62.6426792
  76.4742661  17.2771502  62.8633547  63.8607168  48.4709549  53.4439468
  63.4140396  48.6887026  54.2620516  64.7586775  48.2698822  53.7075043
  60.4111052  53.9224482  50.1580191  60.3819990  53.9784908  51.1131334
  60.1918268  53.0109596  49.9647856  68.3719778  33.9391303  61.4216566
  68.3222532  33.9021993  62.3768520  69.0787601  34.5592594  61.2424135
  69.2563581  29.8248982  69.9835396  69.0902376  30.1308632  70.8751774
  69.6719408  30.5693293  69.5483923   2.3076567  26.3384128  59.6231604
   1.6423291  26.4674592  58.9472055   3.1236905  26.2212396  59.1367579
  47.4678183  34.9405384  58.1450939  47.3467684  35.5348563  58.8856125
  48.4090710  34.9616885  57.9723883  11.3213992  72.0615005  69.9691725
  12.2589958  72.0202971  69.7808981  11.0325825  72.8816986  69.5690632
  52.1527910  28.6788559  65.8243418  53.0483532  28.6863399  66.1621857
  52.1063948  27.8885889  65.2862358  71.3388300  55.6259680  68.4758282
  70.7173872  54.9093914  68.6044931  71.0380363  56.3134670  69.0700483
  73.4413767  12.0714128  60.9333944  73.1051064  12.3615408  60.0854683
  72.6710558  12.0474780  61.5010786  70.0919151  20.1293278  48.3069706
  69.6757507  20.2932501  49.1532373  70.4117775  20.9870338  48.0272198
  44.8712778  45.6314182  63.1449699  45.2932787  45.4883242  63.9921236
  45.5852365  45.8906364  62.5624800  77.4953699  29.9387455  47.7644777
  77.9712200  29.9154091  46.9342661  76.8439579  30.6303263  47.6478195
  67.6989794  33.7643361  64.2252827  66.9040155  33.7277412  64.7571945
  67.7348042  32.9129767  63.7892389  84.4349957  15.6774664  38.7891006
  84.8507118  15.3214657  39.5743823  85.1327038  15.6910086  38.1339288
  69.6453571  28.6099815  51.3852739  69.7393751  28.7509847  52.3273563
  70.0961733  27.7817464  51.2208939  53.9095497  18.5863221  33.9669275
  53.8642025  19.5076931  33.7114835  54.7127438  18.5202169  34.4833970
  66.9284391  34.3059564  49.7945166  66.1177444  34.5216012  50.2554893
  67.3398256  35.1533103  49.6242714  61.8653917  33.4658957  23.2190466
  61.1735535  33.9783764  22.8007674  61.8473864  33.7421083  24.1353512
  66.0102844  38.4964323  46.9401836  66.5100956  39.2875743  46.7389011
  66.5210199  37.7854729  46.5529871  63.1610775  21.4242649  34.1481662
  63.0921984  21.4105678  33.1935453  62.3456907  21.8310046  34.4413209
  83.8392067  39.3893862  44.9380445  84.7851944  39.5037103  45.0289726
  83.4938622  39.5420623  45.8176231  62.9809189  23.7340569  36.6372275
  62.1677685  23.4356570  36.2298274  63.2306623  24.5089889  36.1338949
  69.4166422  19.9449849  44.5810843  70.3620100  19.7967875  44.5576668
  69.2524862  20.5580425  43.8645363  13.7576437  17.9825318  62.6147413
  13.8842988  18.6836374  63.2539940  14.3764472  17.3020554  62.8798199
  85.6941795  45.3624010  27.2836089  86.4507484  45.2474594  26.7086101
  85.7484627  44.6319008  27.8997707  78.9288807  23.8217950  56.8900728
  78.9867735  24.7514534  56.6695833  78.2351637  23.7744045  57.5479031
  64.4007158  35.5325842  42.2395945  65.2806950  35.8905554  42.3567677
  63.8300800  36.3008761  42.2213173  54.0996885  31.4044809  46.2029505
  54.1557455  31.7768192  47.0829821  54.1210890  32.1633792  45.6199884
  68.7601233  51.1404943  44.4544744  67.9682112  50.6886959  44.1629601
  68.4725380  51.6739655  45.1953745   6.3114136  77.2901630  11.2570941
   5.4733217  77.3102617  11.7190802   6.5549707  76.3645744  11.2429571
  54.3103600  24.2968583  55.0100708  54.3345022  25.0783992  55.5621958
  55.0539255  23.7716150  55.3058100  63.4656668  34.8521304  19.4694293
  64.2370844  34.9181414  18.9065897  62.8942537  34.2290759  19.0205169
  72.5304174  36.7103863  42.1296549  72.9358006  36.7681932  42.9948473
  71.6652775  37.1037626  42.2437429  85.2612400  14.9779928  43.7310219
  84.7104931  14.9357271  42.9492807  86.0915089  14.5859134  43.4605455
   3.8621667  44.1295481  56.1806297   3.7085503  44.6906662  55.4205084
   4.5220557  43.5020399  55.8856535  75.7537413  26.7386031  50.5761194
  76.3960218  27.3696113  50.2512550  75.6115198  26.9898844  51.4887333
  68.5766268   6.7703682  13.8480914  68.8973951   5.8698928  13.8979065
  68.0623865   6.8859857  14.6471047  56.7197514  22.8612399  55.8473253
  57.3881245  22.7313113  56.5200996  55.9319592  22.4572206  56.2111664
  50.1600599  34.7545791  48.7739801  50.1205349  34.8240066  49.7278404
  49.6306944  33.9842010  48.5677671  80.3128147  61.6720438   1.5847430
  81.2249470  61.9537687   1.5148698  79.9128866  61.9486189   0.7602465
  65.9671259  25.6468654  56.7969990  65.6865454  25.0711870  56.0855913
  66.1179161  25.0579333  57.5363588  80.9730434  24.4425392  59.8016644
  80.1089573  24.8091578  59.6141243  81.0039997  24.3784547  60.7562160
  11.9068706  66.2626696   3.5417804  12.6559484  66.1614180   2.9545301
  11.7572045  65.3847551   3.8926369  33.6575866  67.3633718  11.3144016
  34.3053603  67.7293539  11.9166327  33.0017638  66.9608879  11.8837273
  62.0613050  58.8811541  66.4883375  61.9361734  58.6092615  65.5791330
  61.5756178  58.2347202  67.0006466  74.1978788  70.0046015  54.9530315
  74.0785599  69.4373465  54.1913128  73.7470007  70.8162260  54.7202158
  51.4486885  35.8141971  69.5838594  52.1967983  35.7175398  70.1731205
  51.2552500  36.7515898  69.5941448  61.2179708  27.2905540  58.0628777
  60.7863331  27.6345730  58.8449097  60.7236767  26.5004945  57.8444481
  59.6585941  41.6562796  68.2101440  59.1875410  41.7550945  67.3827505
  59.6812725  40.7113934  68.3614731  56.2949467  20.3224611  54.1775274
  56.9798708  20.9781361  54.0463829  56.6700602  19.7069287  54.8073244
  83.3678818  21.9209504  60.4205704  83.7282753  22.5354052  59.7812033
  82.8609085  21.3003945  59.8970032  80.4052734  65.1808739  12.1551168
  80.8463383  65.1199961  11.3077748  79.4832039  65.3151608  11.9360709
  64.3972445  43.6707354  56.2991190  64.1729927  44.1288853  57.1090841
  63.7578726  42.9608011  56.2406158  80.3275490  34.6207118  43.3102560
  80.1073074  33.9654207  42.6482010  80.9147549  34.1643643  43.9128876
  83.6344624  52.4383307  51.0227871  84.1039658  52.6602888  50.2187157
  83.0085087  51.7648983  50.7565165  66.2400770  72.3639631   5.2108532
  65.4673100  71.9203138   5.5604780  66.9533300  72.0943499   5.7894802
  56.6265917  15.2576375  62.1078157  56.1224604  14.4865346  62.3675966
  57.0154142  15.5753028  62.9227638  58.4376764  49.4776773  61.7518044
  58.5005808  48.6177111  61.3361979  57.5463104  49.7706223  61.5623760
  62.5863075  40.6869602  66.0387039  62.5993252  39.8227310  65.6273937
  61.6582012  40.9167528  66.0838795  82.7650547   9.4616872  65.1636267
  81.8150043   9.4729686  65.0474024  82.9014874   9.7890669  66.0526943
  34.8338652  60.7347298   0.8553065  34.5447326  60.6782627  -0.0554331
  34.7074175  61.6540098   1.0901822  64.6473074  24.1241217  52.6288557
  65.2870178  24.8099184  52.8203821  63.8595057  24.5987487  52.3636627
  64.0138006  18.2843733  48.8855696  64.1374874  19.2149889  49.0723515
  64.7533083  17.8536713  49.3143511  65.4415798  59.2320442  65.1117182
  64.9699640  58.6808586  64.4872141  64.8290777  59.9380255  65.3182745
  19.5340598  10.1572561   0.2323534  20.0608015  10.8761919   0.5815061
  19.3955183  10.3862035  -0.6866796  46.0463572  43.1214380  66.2319374
  46.6512680  42.4030161  66.4168262  45.7599401  42.9676914  65.3316259
  27.2389746  74.0156460   9.9186277  26.3752460  74.2369604  10.2667975
  27.6668262  73.5348606  10.6271636  86.0648537  38.5384870  63.6302376
  85.2405643  38.8349175  64.0161276  86.5423679  39.3451309  63.4364843
  78.1062460  68.9175987   4.1759494  78.1033945  67.9838037   4.3862978
  79.0322876  69.1598415   4.1739812   6.0026264  52.0266962  56.6331768
   6.4755595  51.2235546  56.8511868   6.6891974  52.6581383  56.4183807
  78.3023500  32.6778650  60.1234436  78.4728098  31.7955351  59.7937965
  78.1396151  32.5567651  61.0589027   0.5326204  12.1568394  49.1983986
   1.0552779  12.8406143  48.7794542   1.0390388  11.3549972  49.0686989
  49.8693752   8.4969753  58.3018732  49.3319368   8.8424790  59.0146303
  50.7703638   8.6113691  58.6041355  22.7163815   7.7221042   7.1575409
  22.1441841   7.8647226   7.9115188  23.5786986   7.5574726   7.5390303
  80.0444889  67.8748751   0.1821747  79.7797251  67.5671244  -0.6846707
  79.5367861  67.3393631   0.7918420  77.6711941  39.2288089  70.0459766
  78.3017349  38.5877943  69.7177219  77.8742886  40.0318670  69.5663118
  85.9664249  51.9123125  10.1582575  85.1674557  51.5972519  10.5808902
  85.8126068  51.7759895   9.2233843  73.6475468  57.1658564  47.9118252
  74.5751762  57.3127651  47.7270222  73.4835672  56.2700272  47.6171446
  52.4945068  48.9115477  61.0403585  52.0235252  48.1808567  61.4409781
  52.4687862  48.7271023  60.1014471  42.8611088  19.5119011  59.3976831
  43.3828211  19.5043051  58.5951948  43.1437969  20.3011274  59.8596811
   6.3619560  45.1768208  51.7500162   7.0397830  44.8684216  52.3514080
   5.5388129  44.9136209  52.1615887  44.5347118  30.4799557  58.1294680
  45.1277733  31.1986613  58.3484888  43.7851954  30.6018567  58.7122154
  60.9438324  41.6177845  60.7350779  61.8692398  41.7097902  60.9617662
  60.4802561  41.7519903  61.5617085  71.8520927  16.1629081  56.1592388
  71.4294052  16.8194473  56.7128849  72.7092457  16.0254741  56.5625191
   5.6987637  37.8802228  42.5163031   5.1073354  38.4065509  41.9783211
   6.5743905  38.1838441  42.2768784  75.1481295  34.5769477  52.5999355
  74.7757816  34.7966552  53.4539318  75.7951021  35.2633166  52.4369764
  70.4297400  35.2804208  41.1423397  71.2753820  35.4895043  41.5390825
  70.1247501  34.5095277  41.6208124   9.1489780  31.5613675  53.7873745
   9.9504864  31.9228458  54.1657257   8.7583590  32.2931671  53.3097553
  50.0515938  24.1831946  58.1158257  49.2775774  24.0682650  58.6671162
  50.6121540  24.7801542  58.6114454  80.4806709  37.7087188  57.8309059
  81.4008141  37.6278758  57.5798273  80.1974392  38.5352373  57.4399042
  77.5213003  35.1008964  49.1330624  77.9008055  35.8525300  49.5883179
  77.1016455  34.5889783  49.8244858  61.7181587  37.8972626  62.1988726
  62.3221827  38.1494665  61.5004587  61.1884212  37.1977520  61.8163872
  75.8854437  26.2366176  44.0654612  76.0125256  26.7328382  44.8740721
  75.2729940  25.5410957  44.3050146  74.6290636  41.7687082  43.7812424
  74.1496944  42.3417139  44.3796539  75.0963688  42.3676777  43.1989241
  47.7915430  14.5557559  57.0776415  47.1798754  14.0825367  56.5135813
  48.0515671  13.9151049  57.7395964  29.0093279  72.4622583   0.2775919
  28.3637094  72.9451609  -0.2383657  28.5225749  71.7203903   0.6366693
  69.6425629  70.2197933   8.0597067  69.1687202  70.9377861   7.6399511
  69.4393206  70.3106165   8.9906609  56.1108685  43.1196117  51.8863297
  55.4031801  43.5840845  52.3331738  55.6640911  42.4953222  51.3145971
  74.3536758  20.3005457  45.8996487  74.1541338  21.2055230  46.1392927
  74.8602724  19.9632716  46.6384602   5.0426131  26.3342714  58.1942129
   5.1517153  25.6389117  58.8429070   5.1691592  25.8978820  57.3517275
  36.2732506  68.9467812   2.1552776  35.9974742  69.8043013   1.8314928
  37.1403933  68.8137293   1.7724034  30.7467175  38.7672925  66.2350273
  30.4174399  37.8749585  66.1275482  31.4869738  38.6787438  66.8353701
   6.0554206  59.8421288   1.8294406   6.8200064  60.2471781   2.2388014
   5.9901041  58.9813852   2.2430658  84.5083523  41.8059444  59.5455885
  85.1724720  42.0570230  58.9036131  83.8154697  42.4580097  59.4409466
  24.7432661  22.0911098  12.7273905  25.1949382  21.2557387  12.6074719
  23.9030337  21.9749236  12.2838354  48.6003447  40.3318310  54.6095324
  47.9745960  39.6341205  54.8041296  48.1291342  40.9178448  54.0172672
  46.5136147  32.4518752  58.6791754  47.0673132  31.9324851  58.0961800
  46.7609930  33.3588934  58.4993029  74.4660187  44.1379833  59.8958254
  74.7048473  44.8325443  59.2820024  73.6841679  43.7391806  59.5138550
  62.6730585  21.6843224  61.6406631  62.7936363  21.1219239  60.8755445
  61.7241240  21.7289686  61.7579412  29.2435193  50.2673531   8.2547253
  30.1342297  50.5853796   8.4021115  28.7241435  51.0609531   8.1255740
  10.5006981  25.3394508  52.8575897  11.4194429  25.0708795  52.8546715
  10.0111747  24.5180249  52.9006958  61.0496044  44.8721552  54.0376282
  61.8217659  45.2719736  53.6374474  60.9015846  45.3818846  54.8341846
  68.7840462  49.4860506  52.6767206  68.8311338  49.5154667  53.6323071
  69.6772289  49.2826843  52.3990536  61.0224771  12.5294828  45.0275373
  61.3295507  13.0580354  45.7641315  61.6980886  12.6363707  44.3579435
   9.8199993  46.1741781  68.3515549  10.1417887  45.8591461  69.1962099
   9.0832704  46.7436790  68.5732126  76.3376760  60.8315134  51.8288374
  75.6663036  60.6677055  51.1665249  75.9074116  61.3952684  52.4717045
  67.0854330  32.5484395  68.4995270  66.9398594  32.9019713  69.3770552
  66.7331362  33.2159901  67.9108906  61.3046598  34.4106531  55.7366562
  60.5487871  33.9152455  55.4212856  61.0473728  35.3275418  55.6399584
  76.1464691  34.8011732  62.0671034  76.8288851  34.1390991  61.9566727
  76.0705757  35.2128077  61.2062740  78.5362577  46.1199331  19.8260868
  79.1712666  45.4439068  19.5894825  77.6961422  45.6617880  19.8493254
  79.7558451   7.4001217  58.9055490  80.4661179   8.0092829  58.7038803
  79.1749811   7.8929311  59.4851780  71.3701868  43.1609821  53.4242725
  72.3188162  43.0728626  53.5168362  71.2403250  44.0655899  53.1395721
  58.1866074  54.6564436  57.5105953  58.7188530  55.0611162  56.8256235
  58.7831354  54.0513706  57.9513502  68.4342146  30.3570676  39.7224998
  68.0352831  29.5033860  39.8907733  68.0879641  30.9233713  40.4121685
  65.7211685  45.7702827  42.9988003  66.3593149  46.4350605  43.2577801
  64.8732567  46.2062263  43.0838537  28.9664221   5.2330089  35.4282308
  29.5892429   5.8847421  35.1064110  29.4597006   4.4127205  35.4340649
  70.3325272  43.5407162  63.0344152  69.9058676  43.3344507  62.2027636
  70.9387255  44.2506886  62.8230047  59.8406982  43.0075264  35.5521798
  59.5936775  43.9322567  35.5615425  60.1625109  42.8545666  34.6637702
   0.9496333  39.2951608  58.8232136   0.8482860  38.8612032  57.9760742
   0.5121077  40.1394415  58.7136936  35.8517265  67.6169443   8.6853182
  35.6307864  68.1518507   9.4477451  35.0287747  67.1914101   8.4446883
  68.2371712   2.4204990   6.8967783  67.8383970   3.2071263   7.2688413
  67.7702713   1.6956928   7.3125798  19.5463395  57.6479340  46.2816811
  19.1033459  58.1420135  45.5918455  18.9263868  57.6463270  47.0109892
  54.9967718  47.3517656  61.9233131  55.3802586  48.2237101  61.8290710
  54.4340420  47.4197006  62.6946449  62.1666718  28.0668116  49.5384550
  62.4114323  28.1300688  50.4616690  62.7728558  28.6557245  49.0890646
  59.5291519  18.1883967  53.4827328  59.2783499  17.3057687  53.7553072
  60.2360725  18.0524409  52.8518534  46.0961580  36.8807197  61.3675404
  45.7012415  36.4173746  60.6289053  45.3890467  37.4243236  61.7149878
  64.0013885  33.2463074  40.7595587  64.3635654  33.8338590  41.4227629
  63.4584188  32.6324964  41.2541866  51.4870882  34.0142512  54.1114807
  51.1679697  34.7054362  54.6917057  51.9811821  33.4288669  54.6854353
  66.0138988  28.3390570  57.0991039  65.1998043  28.8423157  57.1136618
  65.7332563  27.4333096  56.9683599  70.2084541  21.5189886  42.4447870
  69.6736002  22.2147298  42.0625448  71.0312939  21.9494939  42.6767969
  54.8055267  41.9448948  59.7704411  55.7531595  41.8615580  59.6642351
  54.6033859  42.8198147  59.4389534  75.9160519  17.7188945  17.8151917
  75.9215736  17.1005237  17.0845616  76.2888479  18.5221934  17.4519193
  66.9162655  36.5511036  62.2951603  67.2291756  35.6524587  62.1914482
  66.3175297  36.6825867  61.5600014   6.2955469  75.5518770   5.1346207
   5.8968329  74.6997738   4.9580359   5.5569232  76.1598396   5.1669741
  53.8818502  32.9626989  48.4042549  54.2510271  33.8196611  48.6176872
  53.2432890  32.7974987  49.0979290  68.3279419  35.5803204  53.9272022
  68.5732079  36.1334419  53.1854916  67.3869133  35.7217741  54.0306044
  67.0243025  48.7512064  67.1271706  67.3593855  49.6372271  66.9896173
  66.1489964  48.8801956  67.4924517  21.9300342  34.9573541  26.9822001
  22.4346256  34.6797562  27.7467656  21.7855573  35.8938336  27.1177125
   9.7449219  26.4613080  59.7884512   9.0381241  26.6167903  60.4149485
  10.4177904  27.1004176  60.0230122  77.5200796  35.1393485  34.5814228
  77.7171183  34.2029572  34.5573640  77.3217535  35.3188372  35.5004883
  27.9585195   3.3938459   8.1705946  27.3317599   3.7561676   8.7967944
  28.5513735   2.8645772   8.7041020  61.2443924  23.9635468  32.2635531
  61.7200184  23.7958264  31.4499903  61.5461731  24.8276734  32.5436306
  76.3755941  43.0395794  41.9596672  76.6375685  43.8870430  41.5999317
  75.8491564  42.6382923  41.2682438  77.9113102  20.5401707  45.6024742
  77.4066925  21.3184023  45.8390045  77.4700165  19.8217177  46.0555887
  86.0630322  57.5246763  40.4806423  86.5611744  56.7887449  40.1249838
  85.1696301  57.3826981  40.1677275  49.7308207  31.8215179  66.6437912
  49.9241495  32.0688200  65.7395267  50.2758169  32.4037981  67.1730900
  79.2645454  56.4390373  48.7998295  78.7482548  57.1895933  49.0936661
  80.1678276  56.7557478  48.7977505  63.0631638  14.6066320  35.7023668
  63.5633755  14.9732840  34.9732685  62.5928116  15.3547072  36.0703111
  50.5474186  17.3383975  55.5315065  50.2886915  16.4878476  55.1767445
  50.3827429  17.9554296  54.8184967  81.0481167  78.5530615   2.7904707
  80.1723194  78.2882309   2.5092736  81.3507652  79.1471338   2.1036574
  27.9924798  49.9951124   4.7049788  28.4330058  50.4169607   3.9672732
  27.4740434  50.6931019   5.1053065  57.6991653  40.9262657  60.3717279
  57.9168797  41.4092064  59.5744848  57.8683472  41.5462923  61.0810804
  48.0794954  38.1274700  66.7488813  47.8910780  37.3859859  67.3241472
  48.7917423  37.8204608  66.1879158  47.6375437  63.3807802  21.1406374
  48.2052040  62.7010918  21.5039778  47.2924566  62.9985428  20.3337669
  29.8728085  75.4274845  16.5472162  28.9899254  75.2992296  16.2003696
  30.1966286  76.2069178  16.0957110   4.9486119  57.5256348  61.9753933
   4.2359352  56.8903589  61.9065094   5.6434065  57.0569372  62.4377918
  64.1630030  38.4602904  55.0600767  63.9545584  39.2974687  54.6454525
  64.8021364  38.6811066  55.7375574  70.3264046  51.0604668  48.3034897
  69.4461012  51.2811565  47.9992008  70.5173206  51.7126513  48.9776087
  77.2989368  65.4303980  50.5093622  76.5977097  64.8746634  50.8494711
  77.0260334  65.6407452  49.6163273  47.5714731  41.6097832  48.1822205
  47.1559668  41.7243671  49.0368891  47.7542114  40.6717205  48.1285810
  78.3555698  47.9108620  24.7929502  78.9556360  48.6523914  24.8722363
  78.2268286  47.8066730  23.8501883  82.6729202  74.1548538  69.2567205
  81.9348431  73.5697412  69.0860510  82.2897339  75.0319815  69.2500067
  61.2895823   6.1688513   2.7522919  60.7577610   5.8729774   3.4911159
  61.4144897   5.3846335   2.2178462  77.7730417  39.0253234  49.0943670
  78.5217762  39.3557811  49.5907736  77.0280313  39.5304918  49.4199371
   5.1877671  64.4507742  44.8893881   5.2155727  63.5034847  44.7548532
   4.6742982  64.5641327  45.6892204  85.9575883  55.8938169  48.5061979
  86.1930462  56.8008947  48.7011433  85.5626400  55.9308100  47.6350641
  10.4100347  55.5254412  64.3984556   9.4916046  55.2658224  64.3255472
  10.4308033  56.1257362  65.1437426  61.1685038  37.0039129  67.3399496
  61.9208622  36.4831758  67.6210546  61.1700630  36.9312167  66.3855171
  82.2101593  75.1643515  30.1167178  82.3023319  74.6064234  30.8890224
  83.0786991  75.1618242  29.7143888  64.4901752  71.1704493  53.2740593
  64.1967726  70.2660275  53.1637621  65.3362083  71.0956478  53.7154961
  14.5865965  45.1031351  42.4581385  13.9264667  45.1487398  41.7664909
  15.4100132  45.3131628  42.0175648  72.6418972  66.3975573  60.0727606
  73.1129551  66.9471216  60.6991148  73.3307838  65.9612274  59.5714808
  82.2514725  50.4516506  47.3932171  82.9861450  50.4673004  46.7798281
  82.0584488  49.5216751  47.5120592  64.0017939  31.8745136  63.0291319
  64.6258926  31.5072346  63.6551046  63.2667446  32.1675801  63.5676861
  73.1107092  59.2111397  44.6813202  73.5120535  58.6755037  43.9970303
  72.2391176  59.4174290  44.3436813  76.9490433  50.0195646  39.3602514
  76.2850475  50.2546883  38.7121344  77.4956083  50.8015490  39.4377232
  63.2994223  47.8031874  56.1787367  62.4948788  47.4827337  56.5864706
  63.7569904  48.2643127  56.8817472  75.1623631  62.1053553  65.9868479
  75.8527327  61.6012335  65.5561686  75.3209257  61.9781590  66.9222164
   5.2050894  53.8683176  24.5617986   5.2790880  54.5958185  25.1794529
   5.8582556  53.2347012  24.8586726  80.1289845  60.9664488  49.2546654
  80.3200054  60.3006172  49.9152803  80.1216125  60.4868126  48.4263372
  73.4761858  60.3024626  47.0867586  74.4043493  60.5364323  47.0839787
  73.3608437  59.7708082  46.2991858  78.1360531  41.3922882  39.4081020
  77.8086948  40.6573296  39.9266601  79.0386677  41.5108633  39.7038507
  60.9908867  36.4509487  64.6761036  60.1920319  35.9837389  64.4316101
  60.9513235  37.2687626  64.1802740  74.7651529  33.5120511  64.2309523
  74.5194101  32.6426601  63.9147234  75.0391769  33.9842772  63.4447289
  20.4795480  56.9289589  66.9752789  20.4899120  56.8230247  66.0240126
  20.8996701  56.1363268  67.3091316   1.3643853  50.3377104  52.6476908
   1.7506543  51.2131357  52.6732540   1.0562160  50.1857138  53.5410881
  69.3126297  59.3255615  39.5977306  68.4335518  59.6683407  39.7588539
  69.5212317  59.6099806  38.7078857  82.3299122  45.5071449  33.5233617
  83.0842686  45.8815670  33.9783311  82.2639084  44.6147776  33.8632846
  70.3700781  53.3009148  49.8259258  70.3971004  54.2566538  49.8713589
  70.6175137  53.0122805  50.7043886  71.6905212  43.6792374  45.4280615
  72.5263214  43.8537979  44.9953938  71.2923431  44.5428228  45.5371809
  60.4561186  64.5649815  55.1911068  59.6593142  64.8146772  55.6590748
  61.0579872  64.2793322  55.8784151   7.4592197  47.2252655  61.6374207
   6.5589118  47.2759867  61.3163233   7.9018354  46.6443872  61.0186291
  60.2594185  34.6141768  47.7109766  60.1433182  35.5432606  47.5120926
  61.2074471  34.4827867  47.6965284  45.4806614  38.7354660  66.2770748
  46.4331436  38.6769557  66.2023592  45.1872778  37.8252673  66.3182545
  22.1143079   7.3123831  23.6354709  21.6968083   6.4735854  23.4396553
  22.4164867   7.6336235  22.7859282  51.9727278   6.5095186  16.2132072
  51.3883018   6.8775976  15.5504894  51.5949345   6.7885190  17.0472705
  16.1686075  11.8648481  38.7174439  15.6139052  12.5270736  39.1297483
  15.8837724  11.8489361  37.8037453  64.4490957  64.7610092  45.8614969
  65.2444124  65.2660704  46.0306692  64.4206190  64.1154099  46.5676260
  74.4159412  45.9697056  67.4400187  73.6640835  45.5857849  66.9888544
  75.1395273  45.8783054  66.8200970  32.2930455  27.0547724   0.9342264
  32.5263309  27.7983308   1.4900416  31.4236474  27.2711205   0.5972234
  70.9883213  35.0421143  65.7501936  71.3488770  34.1589165  65.8288670
  70.5864906  35.2135181  66.6018867  53.5666990  44.3995142  53.2792330
  52.8522158  44.9567795  52.9706860  53.1403065  43.5797691  53.5291004
  82.2638798  75.8230639  64.8872089  82.7155399  76.6079235  64.5770073
  81.5453625  75.6993198  64.2670012  28.0507231  75.9438229   4.6619326
  27.7827144  75.4798079   5.4550868  27.3693347  76.6026211   4.5280552
  53.0558491  29.5224714  48.9214325  52.7051020  30.0755191  49.6195364
  54.0059042  29.5959520  49.0121460  67.3206282  30.8019733  53.7291670
  66.7950153  31.5251827  53.3872080  67.5944519  31.0949397  54.5983171
   0.5644388  32.1374464  44.5906305   1.1143188  32.6367188  45.1944447
  -0.0324259  32.7863526  44.2179346  66.0675526  35.1176476  66.9034481
  65.9273815  35.6959939  67.6531792  65.8921289  35.6680870  66.1402464
   1.9457360  42.8988504  50.3132963   2.1895063  42.8454399  49.3892002
   2.1946722  42.0488071  50.6761837   8.8415897  29.1594911  62.0315456
   9.0588641  29.7411942  62.7600002   9.5626342  29.2717743  61.4120960
  85.8021545  71.7449427  32.8091836  86.0116482  70.8213854  32.9484105
  85.3216457  72.0027733  33.5958648  27.0808744  63.3837128  69.3214989
  26.5556812  64.1599751  69.1270161  26.4446950  62.7314472  69.6148443
  13.6210918  51.1288309  58.3700323  12.7964997  51.3215399  57.9237795
  14.2011034  50.8147192  57.6763821  13.8109362  56.2582731  55.5128527
  13.3071768  56.7020655  56.1951303  14.5290053  55.8342886  55.9827948
   9.3200940  67.1282101  15.8286273   8.5042071  67.5353670  16.1198080
   9.5975482  67.6564169  15.0801265  49.5636511  32.5005507  56.6508389
  49.7398806  33.1985950  57.2816420  50.4304123  32.1925902  56.3860416
  27.6307702  19.9155593  36.1500072  27.8067493  19.0348792  36.4811683
  27.9885817  19.9135411  35.2622032   2.6885578  65.0714207  46.4671707
   2.2382563  65.7584953  45.9758520   2.8004736  65.4382324  47.3441839
   1.7429979  50.7468176  41.8515301   1.1245738  50.0163078  41.8396282
   1.1908979  51.5284157  41.8287134  64.6230507  45.1992750  59.7762203
  65.0992012  44.3750620  59.6752930  64.0085220  45.2122688  59.0424538
  35.2476430  77.5000048  53.2108593  35.3926611  78.1889343  52.5623369
  34.2991304  77.4874353  53.3389187  68.3000851  44.0778399  48.8577080
  68.1571436  44.3512535  49.7638226  67.6165199  43.4283876  48.6928225
  75.6402731  45.9235001  51.4841890  75.0110149  45.4474258  52.0260572
  75.5783463  46.8299150  51.7855406   5.8722860  55.0259638  59.9561691
   6.1844110  55.4345322  59.1487741   6.2073010  55.5885935  60.6543398
  20.4897237  37.8322434  56.8501139  21.3459015  37.8656363  56.4234066
  19.9399638  38.4184813  56.3301897  63.2413149  35.0005126  64.3167067
  62.4959087  35.5993080  64.3619204  62.9042196  34.1722345  64.6581078
  62.6733732  61.8947601  55.2989340  63.4284830  62.1868134  54.7883034
  62.4031782  61.0772276  54.8807621  15.2890086  51.9745350  53.9768553
  14.8628736  51.1430883  54.1850328  16.2253594  51.7785406  54.0094852
  43.3990383  27.5019836  63.5398197  43.7968826  26.7670560  64.0065479
  43.7246370  27.4208832  62.6433611  80.7385540  36.8422937  44.5918226
  80.4094887  36.0053205  44.2640638  80.6733894  36.7689610  45.5439854
  72.4238157  53.7432098  63.0629206  72.3874283  53.0672550  63.7396717
  73.3536959  53.8175249  62.8483725   1.5646420  48.2358646  59.4350624
   2.3871201  48.1400490  59.9152517   0.8957466  47.9131269  60.0389290
  76.8854284  47.9203272  68.7223434  75.9356546  47.8317165  68.8018084
  77.1728659  47.0886993  68.3455038  66.2389469  68.5866547  43.5851383
  65.8905077  67.7065372  43.4429598  65.7219505  69.1455460  43.0049753
  62.5317335  30.3197336  60.9665442  63.1220341  30.5460763  61.6852570
  61.7227888  30.7921457  61.1631918  85.7976055  51.3091183  55.2694845
  86.5902328  51.0361004  55.7314634  85.5374432  52.1231413  55.7006645
  10.1886868   5.8594030   0.9881103  10.2060938   5.9498858   0.0353555
   9.9591148   4.9422175   1.1374401  27.6247001  66.1155987  12.1395719
  27.0962882  66.4252281  12.8751969  27.9749823  66.9135857  11.7436540
  61.8667412  64.7259569  34.2334628  61.9456911  64.8156691  33.2837510
  61.6467571  63.8043690  34.3695235  74.7596025  46.9227600  15.5741394
  74.9701977  47.6020241  14.9334514  75.5125427  46.9091272  16.1650109
  64.6347046  45.8325052  62.4276352  64.6253014  45.8144617  61.4706516
  65.3253555  45.2164650  62.6720285  61.5646172  63.0981827  13.4789014
  61.1519480  62.2420549  13.5928321  62.2571659  63.1200361  14.1393006
  84.0233803  48.0996180  47.3578882  84.1348553  48.0116940  48.3044958
  84.4268703  48.9414501  47.1463633  74.1144609  40.3015232  55.5869818
  74.4465065  39.5087576  55.1656723  73.1635332  40.1921225  55.5875444
  83.1555176  47.1936035  40.4411888  83.3241367  46.6663408  41.2220812
  82.2079945  47.3293829  40.4438877  69.1046429  39.9339175  58.7390232
  68.7503719  39.3524098  59.4117594  70.0199699  39.6682334  58.6505985
  35.4335620  -0.0453027  54.9111319  35.8288487   0.7612292  54.5802498
  34.9429764  -0.3943857  54.1670227  58.3798981  13.2300913   8.0009460
  58.9807320  13.8285136   7.5569582  58.0436611  13.7342870   8.7418652
  77.9705238  50.7192469  50.5544233  77.4973011  51.5339136  50.7235718
  77.4153376  50.2436304  49.9365330  75.5802059  53.3972359  35.6897402
  75.9029865  53.9592695  36.3941288  75.7915497  53.8739491  34.8870492
   2.1284048  45.5966806  61.1109972   2.0531617  45.3118086  60.2002764
   3.0709743  45.6616354  61.2645435  63.8435793  49.6906948  41.3733768
  64.2131376  50.2446413  40.6857681  63.0650711  49.3016052  40.9749269
  42.4465179   6.2924260   0.5732770  43.1320095   6.5836281  -0.0279985
  42.1853971   5.4335916   0.2409344  84.3751812  71.6641569  38.4667397
  85.2786255  71.9413042  38.3143783  83.8431072  72.3766899  38.1125712
  63.5044670  62.8606510  37.3447275  62.9534721  63.5823393  37.0417309
  63.1856108  62.0973444  36.8631411  16.4773440   6.0913676   3.7572092
  15.6998348   5.8423239   3.2575214  16.4053869   7.0408618   3.8547552
  85.7732105  47.2301960  54.3902493  85.3249073  47.4615240  55.2037239
  85.0775719  47.2008610  53.7333965  13.9670479  43.7966299  53.6672688
  14.4121516  43.0915308  54.1373253  13.7050974  44.4125843  54.3515301
  79.0280533  53.1080627  44.4706726  78.2753277  52.5722885  44.2205048
  79.1178370  53.7420464  43.7591648  63.4291983  34.1393566  53.6107492
  62.7878284  33.5215616  53.2597351  63.1213236  34.3261766  54.4976234
   0.7275270  74.3058348  47.3956633   0.4493966  75.2207041  47.3522091
   0.7085671  74.0937996  48.3288908  84.1863728  43.8260555  52.6937008
  83.3395767  43.8769197  52.2503233  84.8110294  44.1747475  52.0577431
  20.4209971  49.7830009  45.4554081  19.9653661  49.5938826  44.6351242
  19.8796177  50.4468393  45.8825588  19.4480085  51.3461447  25.4242110
  19.5565844  51.3845873  24.4739652  20.2371597  51.7611313  25.7724333
  78.1399536  56.2576246  43.5885715  78.6755276  55.5999947  43.1448126
  78.6825323  57.0461893  43.5914326  56.7809486  23.8367939  69.2390490
  56.9619513  23.0687618  69.7808933  56.5684128  24.5278049  69.8663950
  52.3645449  54.5512867  66.1607695  52.9843855  54.2486429  66.8244219
  52.9136276  54.9390221  65.4792976  58.9758587  65.4533339  61.5262413
  58.5224724  66.2513971  61.2546396  58.6017799  65.2448797  62.3823023
  47.4914169  44.0737200  60.2752542  48.0659151  43.4361410  60.6991339
  48.0023098  44.8830175  60.2592611   6.5385026  57.5013590  16.5270174
   6.0093105  56.7762852  16.1946702   7.2397202  57.6009083  15.8831108
  17.3801541  27.8578782  39.2366576  17.0038271  28.0031466  40.1047039
  16.6975355  28.1424761  38.6289835  70.6224871  14.4760633   2.8567323
  71.1257935  14.5743001   2.0484841  70.8781004  13.6179876   3.1952614
  78.5104847  78.0014515  53.8424397  78.5995150  78.4327745  54.6923018
  78.6708069  77.0757389  54.0257025  70.7350636  42.6583481  56.0912228
  71.0020161  43.0274296  55.2493525  70.9434891  41.7267418  56.0212183
  13.2616246  39.4191337  53.5873032  13.8069594  39.1585779  54.3295622
  12.9377353  40.2888393  53.8216877   3.4568098  46.9566727  45.6131124
   3.7418807  47.6412868  45.0079155   3.0147734  47.4293280  46.3184023
  69.1801596  71.2827730  52.6939392  69.8659658  70.6781816  52.9774284
  69.6416903  71.9431639  52.1771145  58.0106688  32.0690894  65.2527237
  57.6711845  32.8916788  64.9001169  58.5621738  32.3335981  65.9889984
  80.0273800  48.2069683  46.0200024  80.3778934  47.8899240  46.8523788
  79.3779659  48.8647652  46.2685871  83.8659000  23.0804229   2.6297751
  84.0232563  24.0147662   2.7656898  83.9315414  22.9618335   1.6822207
  77.4518204  39.9914765  55.7520294  78.4072781  40.0436640  55.7272673
  77.1596670  40.6463766  55.1180029  71.0749960  60.5835867  56.0586119
  71.8093443  59.9927807  55.8915377  71.4546299  61.2993860  56.5682554
  31.2826514  33.0048418   3.7303239  31.8521309  33.7324286   3.4802422
  31.6281867  32.7087426   4.5724428   4.6387470  19.0930545  45.6936359
   4.6644810  20.0379157  45.8446646   5.2098292  18.9556694  44.9378443
  11.6902566  38.8121176  40.0192785  11.0907602  38.4966397  39.3430305
  11.2828445  38.5460830  40.8435774  17.1977842  66.6515923  52.2804642
  17.2100985  67.5868320  52.0769835  16.4129138  66.3216209  51.8430519
  65.3480959  61.9092894  51.0442019  65.8536291  61.7164040  50.2546024
  65.9858894  62.2849035  51.6511345   2.7963117  53.7052727  55.4297495
   2.7677229  52.7824354  55.6823158   3.2520029  54.1373062  56.1521912
   1.8053740  40.1756287  51.0248470   1.4278536  39.6639156  51.7402935
   2.6457611  39.7536993  50.8460760  66.9325399  65.1783705  36.6770506
  67.1356153  66.0369396  37.0483375  67.0045567  64.5746136  37.4163222
  83.6055946  37.6585937  66.5882826  84.5370579  37.8748393  66.5453625
  83.5577583  36.9264507  67.2030258  66.6320705  47.9971266  53.3708048
  67.1640444  48.6056709  52.8580618  67.2331762  47.6504517  54.0301418
  81.8342304  50.7680941  67.3673248  81.2869072  50.1266575  67.8203440
  82.2361565  51.2788582  68.0700445  65.4806709  26.4944553  68.8616705
  65.5283737  25.7149935  69.4152021  66.0593748  27.1266627  69.2878675
  73.7857056  32.5432563  51.4969397  74.1556311  31.8707275  52.0688629
  74.1031694  33.3692050  51.8619823  72.2056532  64.6220303  50.7988214
  71.3600683  64.2838287  51.0935068  72.4946308  63.9975929  50.1333904
  67.1828890  55.9252501  53.2534933  67.4801636  56.5065098  52.5535011
  67.8931046  55.2918673  53.3566809  77.3249292  60.7944155  65.1131582
  77.1600914  60.8568048  64.1723251  77.6320553  59.8972511  65.2435350
  60.5094671  35.4442525  61.6087389  59.5965528  35.1731634  61.5121412
  61.0041285  34.8082995  61.0919189  79.7850800  67.2142458  30.0350237
  80.7389355  67.2031355  29.9558997  79.6111679  66.8226767  30.8909798
  19.8510396  45.4609013  39.7199726  19.5864964  46.3782310  39.7889376
  20.7687306  45.4551697  39.9920774   1.4744911  56.1519337  64.7739935
   1.0990113  55.6037903  65.4630423   0.8402663  56.8595076  64.6585464
  58.3432770  55.3645086  53.3891201  59.0011263  55.4472017  54.0795040
  58.1002569  56.2665510  53.1805658   0.7148440  64.0171385  55.4452276
   0.3966093  64.3750191  54.6164465   0.1505468  64.4129086  56.1094332
  69.0656614  24.6131372  51.3734961  68.3860683  24.8424101  52.0073891
  68.6427546  24.7165227  50.5210304  78.5384893  60.7704353  25.7239819
  77.8331852  61.4067316  25.8418751  78.3058500  60.0449085  26.3033938
   8.2597542  68.0093765  54.8424959   8.7412882  67.2295475  54.5664072
   8.7496817  68.7396955  54.4645548  71.4061546  41.1603069  38.8119292
  71.4665461  41.6000414  37.9638624  72.2580051  41.3116598  39.2214060
  71.3683891  52.0633078  52.0061064  71.2050724  52.3438644  52.9065752
  71.2805843  51.1105061  52.0324469  72.8569269  57.4559546  25.1568079
  72.6063251  58.2277870  24.6491647  73.7901783  57.3432350  24.9763441
  77.3037004  36.0991454  37.3689675  77.0289564  36.0714102  38.2854700
  76.9919300  36.9464517  37.0510006   3.2782090  77.5119400  19.8636448
   3.5347372  77.7695417  18.9781702   2.3926392  77.1624613  19.7643316
  65.5332076  43.2064875  70.5536711  65.4310071  42.4302843  70.0029484
  65.1908719  43.9246004  70.0213634  45.0655174  36.0156679  66.8638086
  45.8736658  35.7710099  67.3146629  44.3897057  35.9662700  67.5398827
  78.0660105  69.8242712  55.2735472  77.3089981  69.6409130  55.8299160
  77.7835417  70.5493259  54.7161007  66.7577267  14.4813025   8.3817124
  66.2783718  15.2838540   8.5875303  66.7982912  14.4650877   7.4255097
  85.0492287  55.3349972  45.9458256  84.4308758  54.6324348  46.1465311
  84.5586777  55.9315252  45.3803635  67.8752184  46.8110609  62.9551888
  67.4582338  46.0775852  62.5031137  68.3857584  46.4025259  63.6542463
  72.1793509  51.2385750  32.6652384  71.4400959  51.0302114  33.2364798
  71.9373941  50.8691072  31.8160152  76.4718485  20.9540534  43.3473444
  77.0881319  20.8310246  44.0693474  75.6148005  20.7642698  43.7290239
  77.5962925  23.6546373  20.7090163  76.9143820  23.0604362  20.3957105
  77.8104401  24.1955161  19.9488711   6.9997597  67.3930216  68.5148430
   7.0176303  68.3449554  68.6135101   7.8875524  67.1640205  68.2398605
  67.3356724  51.2939072  51.1415625  66.9411659  50.6254721  50.5813885
  68.0045605  50.8244276  51.6399717  64.7272253  56.4426184  50.0242901
  65.4482317  56.4117050  49.3954611  64.4480324  55.5314016  50.1135445
  65.5239248  28.5050344  53.2734299  66.1130428  29.2257094  53.4965897
  65.4455233  28.0003262  54.0829706  75.1677704  44.9006653  62.8261614
  74.4382524  44.5336008  63.3254623  74.9844313  44.6558380  61.9191456
  15.4602003  45.9318733  55.9034920  15.6745696  45.1869774  56.4651108
  15.5605817  46.6962719  56.4708138  34.6852660  66.3715267   1.9192891
  34.6158385  67.0983791   2.5382364  34.5148683  66.7675686   1.0646853
   5.7158411  65.4520798  49.4362640   5.8850139  65.4991865  50.3772211
   5.8800060  64.5368814  49.2089176  79.0271235  65.2265882  46.4205313
  79.5278406  64.7018814  45.7958794  79.0373850  64.7123051  47.2277737
  77.7602100  67.2526169  52.6120424  77.6644993  66.5415430  51.9784451
  77.6859570  68.0509329  52.0891571  26.6587710  65.3674078  39.5941138
  27.2769189  64.7827768  40.0326681  27.2019672  66.0777235  39.2526150
  80.9163952  65.3047037  49.0371466  81.3874531  65.0482368  49.8299646
  80.2171040  64.6564245  48.9537525  25.0462031  12.4563134  10.9854281
  24.4978404  12.4071515  10.2024114  24.7729492  13.2648540  11.4188182
  64.0106630  53.3152962  62.4827671  64.5451260  53.5435772  63.2433414
  63.1395864  53.1494093  62.8432369  53.6530638  69.1205883  53.0584669
  54.2728233  69.4247198  52.3954201  54.1512871  69.1331577  53.8756895
  75.5150938  42.0811892  61.1180353  74.8791218  42.6638985  60.7030439
  75.6929302  41.4115143  60.4576254  83.4639359  66.6012049  55.2918577
  82.6828480  66.0509491  55.2338791  84.1858196  65.9818411  55.3990889
  10.4514074  49.5734072  61.4164066  11.1602926  49.6913958  62.0486975
  10.1464725  48.6779642  61.5627861  37.0112062  65.4010487  27.8540444
  37.2266078  65.1231098  26.9637728  37.1471071  64.6187782  28.3886623
  83.8485432  60.6253958  21.9832897  83.2799625  60.5391932  22.7484775
  84.5819092  61.1593390  22.2887659  35.9738111  21.1677599   6.8073869
  36.0134792  22.0208907   6.3751531  36.6869903  21.1891532   7.4454689
  20.4215550   7.3622674  68.0383873  20.6260586   8.0143183  68.7086391
  20.3759360   7.8625208  67.2235870   2.5903237  51.1084700  55.8973837
   2.1922210  50.8701515  56.7346144   3.1449139  50.3608370  55.6744432
  82.5880718  62.7086258  48.5837936  81.6632175  62.9237700  48.7046003
  82.8649044  62.3577356  49.4302416  14.2071092  79.4188404  47.0478296
  14.2542624  78.5743666  47.4960232  13.3220291  79.4480705  46.6844988
  77.3172855  75.2698708  57.5103426  77.9782391  75.3566027  58.1972599
  77.0876360  74.3406391  57.5148869  63.5335398  69.0251255  45.1178741
  63.8475466  69.1641855  44.2244005  63.2838058  68.1014156  45.1429319
  68.7901878  28.7240982  57.9750252  69.1169310  29.5977449  57.7600527
  67.8821039  28.7268281  57.6723576  81.5808868  78.3871555  63.4310532
  82.2376442  78.5260201  64.1134214  80.7904530  78.8070393  63.7703896
  85.6455803  58.4149885  52.7749395  86.2844658  59.0222836  52.4017572
  85.4010773  58.8092136  53.6122179  49.6750116  16.1314416   5.8119261
  50.4091597  16.7380893   5.7158148  49.7465372  15.5473566   5.0569689
  72.9772854  48.7784243  45.5671024  72.8018045  49.5959711  46.0329962
  72.7678299  48.0920553  46.2005568  19.0043747  66.2783194  57.2641850
  19.6471679  65.6122541  57.0204544  18.1892622  65.9848404  56.8571329
  65.8391809  42.6289511  39.7435665  65.3257608  42.9455185  40.4868126
  66.3196182  43.3988190  39.4390750  82.0774937  80.1620579  36.1790466
  82.1372318  80.5562401  35.3088284  81.1952782  80.3792667  36.4803147
  70.7108402  60.0433636  61.5092087  70.4574013  60.6533909  62.2019339
  69.8814917  59.7601652  61.1242199  22.9327631  55.6070328  44.7685671
  22.1741962  55.6626225  44.1874313  22.6282859  55.9794044  45.5961323
  78.7734222  58.8208818  69.2554045  78.6170721  59.0265656  70.1770782
  78.8609505  57.8679323  69.2341709   9.8583114  69.9091339  69.1580105
   9.7905201  70.0116158  68.2087326  10.5029345  70.5647278  69.4242620
  65.4006958  71.6172552  67.1631718  65.5044079  71.7838621  66.2263060
  65.0054121  70.7467079  67.2093153  61.8872118  52.8827858  46.8071604
  60.9624386  52.8488970  47.0518589  62.2978258  52.1913242  47.3262978
   0.7863487  55.2586365  39.2398214   1.3832422  55.1772833  38.4959579
  -0.0264534  54.8513222  38.9403582  69.8753357  70.4419231  41.4697361
  70.7771206  70.1421976  41.3549042  69.3488693  69.8108768  40.9789801
  50.7362843   1.1146136  52.2703123  49.9493980   1.2609607  51.7453194
  50.5040884   0.3920668  52.8536177  21.7553139   4.1690513  62.1145344
  22.4797893   4.1373059  62.7393198  21.3942432   5.0502682  62.2110510
  68.1877375  80.6927204  45.4425669  68.3912516  80.0740433  46.1440325
  68.9250898  80.6188869  44.8366928  64.4815874  67.8670216  34.7914219
  64.8855448  68.1981754  35.5935359  65.2054548  67.4752426  34.3027949
   9.1178781  65.2957106  59.4233465   9.1121054  64.7829056  58.6151218
   9.7359264  64.8378515  59.9930954  76.5080357  16.4730656   5.4882181
  76.1782885  15.5746388   5.5063474  77.4473381  16.3867807   5.6509858
  81.6594791  65.9463644  64.9624014  81.0935116  66.6261625  65.3281736
  81.7015457  66.1471987  64.0274525  64.1675138  59.1169786  60.9781265
  63.7721729  58.4188557  60.4560566  64.2977571  59.8349237  60.3585911
  64.8318148  64.0993547  54.5424223  65.4321861  63.3540297  54.5257568
  65.2297258  64.7406435  53.9536572  81.3355827  61.1693764  59.3102837
  81.0364819  60.3033829  59.0331221  81.1125946  61.2135458  60.2400970
  84.5863914  64.8264647  57.0885420  84.1467762  65.4666758  57.6480913
  84.0771770  64.0233326  57.1976566  58.7973356  68.7975359  49.1323805
  58.9528656  69.6233177  48.6739874  59.3421221  68.1606340  48.6700058
  29.5338821  40.8983278  63.5537767  29.6872377  41.8158817  63.3283710
  29.5999146  40.8719254  64.5083332  54.6687317  18.2276714  65.0470591
  54.3843460  18.9978409  64.5549250  54.6648550  17.5180697  64.4046545
  14.2379165  76.3772631  24.0033150  13.8327920  75.6995773  24.5444679
  14.2936754  77.1409178  24.5777297  39.5228624  22.7558756  11.7596936
  40.0840569  22.4155712  12.4564612  38.6562395  22.8216410  12.1607816
  49.5637989  71.9335556  40.8525801  49.5306921  72.6158285  41.5231371
  48.8409090  72.1435404  40.2613401  57.4869061  13.9782870  28.5391283
  56.5875053  13.8506877  28.8408399  57.6640701  13.2176578  27.9856968
  13.2067573  71.9933939  52.7126360  13.9268947  71.4309835  52.4274588
  12.6635027  72.1012783  51.9319534  76.5234375  21.4246821  51.9659424
  75.6173372  21.6554213  51.7610645  76.4533043  20.6458950  52.5180340
  64.5082140  15.8187175  57.6370811  64.5800734  16.5026784  58.3028603
  63.6665058  15.3989780  57.8147745  53.3524704   3.1775120  14.5758700
  53.7671328   3.6400697  15.3041041  53.6761522   3.6237118  13.7933302
  58.1420231  13.3522201  56.9305420  57.5895214  12.8639233  56.3201857
  58.0242300  12.9064751  57.7693892  35.6170940   8.0301142  19.2408514
  35.1375461   8.3652347  19.9984539  35.3231072   8.5752326  18.5110211
  37.7974534  73.7475586  34.4354320  36.9098139  73.8054228  34.0819073
  38.3607149  74.0344429  33.7166405  40.8413124  78.9911652  39.1499829
  40.0776577  78.5324049  38.7998390  40.4865599  79.5598841  39.8333144
  79.7951317  11.7538261  55.8023930  79.9503803  11.1493540  55.0766230
  79.0789223  11.3554072  56.2969065  42.3764801   2.2038035  23.9216423
  41.9006157   2.8178844  24.4808245  42.1832037   1.3428539  24.2926407
   6.1143595   8.1489694  58.9438200   5.6578088   7.3572743  59.2284441
   5.5115217   8.5645360  58.3272791  74.5059967   1.5196426  29.9242067
  74.3853331   0.7369361  30.4618335  74.9779415   2.1293895  30.4913998
  29.2209005  77.7008677  47.8574038  29.1927552  76.9262457  47.2957993
  29.3713093  78.4287024  47.2541904  32.4335599  75.2364826  47.0029163
  32.6455832  74.5770407  46.3423014  32.4406385  74.7567034  47.8311634
  34.6965957  66.1598730  31.1716151  34.1451311  66.2598801  31.9475746
  34.6145606  65.2355051  30.9369946  19.0247405  64.6827269  38.6163807
  19.8810267  65.0158930  38.3480430  18.5465777  65.4587936  38.9084625
  30.0548172  80.0916672  46.0603142  29.1756082  80.4656601  46.1181784
  30.5659151  80.5803585  46.7054367  60.2609491  81.3463020  50.3051949
  60.5409575  80.5862045  50.8151722  60.7057238  81.2470055  49.4634438
  53.0746174   2.5504979  22.5222707  52.2269106   2.1160525  22.6165199
  53.5631084   1.9935469  21.9161224  39.1091824  72.0952415  36.6923904
  38.3543801  71.5335894  36.5161777  39.1499424  72.6848745  35.9394598
  20.8067369  65.9663486  40.7414150  20.3183556  65.4177809  41.3552475
  20.9551263  65.4026127  39.9821949  60.3568888  13.8891447  32.5164819
  61.3081551  13.9807260  32.4622846  60.0703764  13.8227642  31.6055822
  33.9546108  65.1359272  28.3071589  33.7826085  64.6624851  29.1210985
  34.8948407  65.0298071  28.1624532  64.0967989  12.7190471  50.4946136
  64.1853428  11.7811739  50.6642723  63.6490631  12.7684391  49.6500301
  44.9096107   9.3087155  20.0772285  45.4897881  10.0652719  20.1623678
  45.1236248   8.9379084  19.2211127  49.2653608   9.2541927  45.4584265
  49.3511391   9.7584498  46.2674999  49.8697376   8.5201293  45.5684996
  51.1610079   2.5450513  19.7813642  50.7398272   3.0679241  20.4635978
  51.7542458   3.1555563  19.3436575  48.9714050   3.9400619  18.2269132
  49.7027111   3.8046747  17.6243424  48.9988947   3.1822371  18.8110173
  46.8237925   8.0409390  37.5970578  46.7570639   8.9246780  37.2354150
  47.7649736   7.8778005  37.6586771  80.8330345   3.8168898  49.8178005
  80.9305096   3.0519453  50.3848934  79.8873377   3.9121217  49.7045422
  72.6100683   4.5638359  30.9444261  73.3987999   5.0942618  30.8313751
  72.4988079   4.1180772  30.1046920  45.0801754  14.5374560  43.3235502
  45.4227638  13.6997187  43.0120039  44.9527836  15.0547659  42.5283194
  28.2470308  81.2274351  42.5787687  28.4565244  80.3135955  42.7717495
  29.0279518  81.5646299  42.1397924  11.5093505  73.4487009  22.9930997
  12.3571014  73.4428072  23.4375262  11.2013018  74.3511057  23.0768180
  59.7489643   6.9832677  53.0010319  59.7115040   7.6004535  53.7317276
  59.0543032   7.2709692  52.4086571  39.4998574   0.2682822  53.8419151
  40.3290701   0.6377876  54.1453981  38.8759542   0.9908832  53.9113808
  65.2724504  22.1479344  18.5641587  64.3517065  22.4072218  18.5289705
  65.6672096  22.5613618  17.7963877  50.5715895  12.7794385  56.5517616
  51.1283588  12.9094338  57.3194456  49.7411585  12.4645054  56.9087315
  78.4322929  33.8524938  38.5315251  77.9131603  34.0509391  39.3108535
  78.5291958  34.6948671  38.0874014  70.7820177   2.2746629  52.8880024
  70.2519131   1.5428369  53.2036781  71.4920092   1.8616422  52.3965168
  66.1822605  11.5589786  31.8743324  65.6481457  12.3281801  32.0725226
  65.8841515  11.2767196  31.0096407  70.7870007  14.4731796  36.1950564
  70.7699585  13.5418236  36.4153194  70.7373953  14.9200881  37.0400667
  62.9939699  18.4256029  38.6603475  63.6797667  18.8478565  39.1776657
  62.7210808  19.0948057  38.0327082  82.6628971  15.7766628  49.5382071
  83.4065247  15.5305171  48.9880610  82.8406620  16.6829586  49.7897196
   6.5687525  53.6907959   2.0533226   6.3164777  52.9442453   2.5966942
   7.2451282  53.3453083   1.4707533  70.4230881   9.8278111  52.3715210
  71.2731075   9.4994164  52.6645327  70.5005169  10.7799792  52.4316263
  46.8233490  75.7445765  29.2551613  46.3314247  75.5518198  30.0533390
  47.2102404  74.9058962  29.0038395  79.4980192  11.6079569  44.1722250
  80.0970173  12.1073747  44.7272205  79.5028496  12.0728981  43.3355427
  39.5884132   6.0710204  51.9140053  38.7177634   5.7993257  51.6235113
  39.5927286   7.0215476  51.8012571  35.8355236  72.4668932  39.8202586
  36.0182953  71.5403938  39.9765468  35.7131577  72.5304174  38.8730383
  84.8494339  34.6229601  63.4044790  83.9269733  34.7094154  63.1640100
  84.8334122  34.2408991  64.2819786  76.0521746  14.3932736  35.2571654
  76.6176081  14.7075355  34.5516491  76.4986515  13.6164296  35.5939174
  65.7451200  10.5497634  40.7238674  66.3212729  11.2156975  41.0991192
  64.8730850  10.9433544  40.7533360  64.7160864  19.6600175  42.6752329
  65.2962017  19.0423226  43.1203699  64.7080183  19.3669474  41.7640352
  43.3946133  65.1497936  41.5615082  43.3246613  66.0325575  41.9249105
  42.5092459  64.7922516  41.6287279  72.2022200  17.8877163  48.6343670
  72.0756674  17.4863207  47.7746582  71.8981743  18.7887454  48.5251045
  54.7511911  14.2816973  28.9826512  54.0155029  14.8038721  29.3025398
  54.3643188  13.4356833  28.7572169  75.5074310  13.7211251  31.7516828
  75.4416609  14.2823994  30.9791040  74.7001696  13.8878417  32.2382689
  70.9831905   5.5890965  47.8479481  70.7763529   6.0957742  48.6332655
  71.7280340   6.0461134  47.4573326   1.6675836  32.4421287  34.5925307
   0.9844184  32.0021892  34.0865970   1.2559858  32.6331639  35.4353380
  57.1050262  19.3221474  56.8884134  56.6905689  18.4644771  56.7943001
  57.0473623  19.5146263  57.8242874  81.7848873  22.6601219  66.7681408
  81.9348526  23.2125926  66.0009909  80.8656216  22.8053880  66.9919062
  34.5230317  40.8727312   1.1416127  33.7470269  40.3204107   1.2364202
  34.2111111  41.6451168   0.6700670  64.1639662   8.5173780  55.2252388
  64.6069813   7.7135116  55.4968357  63.7262630   8.2846934  54.4063950
  74.6087027  11.9899940  53.0297899  75.2870941  11.7621732  52.3940897
  74.2200089  11.1507499  53.2764053  64.5572042  14.4347095  60.7284403
  63.7214947  14.6481216  60.3133821  64.5706320  14.9639690  61.5258980
  18.0039060  50.4435349   0.4167229  17.7830803  49.5616913   0.1170270
  17.9288292  50.9885263  -0.3665916  46.3735962   3.5639459  32.3007655
  46.2778616   3.4437594  31.3559794  47.2587681   3.2545754  32.4930835
  66.5393782  14.6642613  41.3110495  66.1361599  14.5350432  40.4525948
  67.1629477  15.3781414  41.1777639  74.5146847  11.1804986  68.1125116
  73.7624979  11.7023587  68.3919907  74.9017477  11.6829944  67.3956347
   0.7211237   0.4432334  52.0045948   1.3854659   0.2548727  51.3417196
   0.5109616  -0.4107343  52.3824883  45.5418396   8.4378499  59.8623514
  45.6868362   7.7417994  60.5032301  44.5974731   8.4270203  59.7065210
  26.8369246  80.4795456  37.0727301  27.4450445  81.1942005  36.8838358
  27.3134184  79.9138975  37.6803732  68.4126711  24.8312807  45.7848310
  67.6114273  24.4187593  45.4622316  68.1072092  25.5815053  46.2948227
   3.4556699  22.6142955  44.3701172   2.6870579  22.0519900  44.2737913
   3.1490436  23.4846854  44.1158819  80.4242325  21.4998507  41.9801569
  79.9115086  21.7575788  42.7462626  80.1263714  22.0858884  41.2844038
  34.5732617  75.7934141  34.9193764  34.7410870  76.6170549  34.4614720
  33.6363411  75.8143139  35.1142526   1.9395022   0.3253066  46.9914150
   1.4633395   1.1550852  47.0225334   1.2554815  -0.3440959  47.0071602
  37.2901273  28.2668352   6.1275423  36.9190860  29.1482973   6.1673504
  36.7249703  27.7431941   6.6955471  38.2214260  78.8926125  54.4930315
  37.9168105  79.5204067  55.1482487  37.8975272  78.0468559  54.8028994
  73.7834215  40.5757618  23.0422306  74.6986961  40.8474922  22.9739428
  73.2844543  41.3407660  22.7558112  74.0209293  29.0909505  56.7512035
  73.2778835  29.6807647  56.8786097  73.6569357  28.3475256  56.2705183
  31.7851663  76.9690371  40.2658987  31.6400933  76.9408846  41.2116194
  32.4505043  77.6466179  40.1457119  84.4423103  31.0998702  46.1564302
  85.0984764  30.9371400  45.4787922  83.6176777  30.8109140  45.7656431
  38.2439828  19.3612683  64.2622280  38.8395929  18.6132705  64.3067217
  38.1387401  19.6381080  65.1724577   5.4830629   5.0099194  31.6944695
   5.2981406   5.8993316  31.3928390   5.5575722   5.0901335  32.6453876
  67.2264862  32.0255089  30.0408745  66.9738102  31.2665105  29.5152235
  67.7024889  32.5905728  29.4323039  40.5400562  21.2857294  31.1619925
  40.3672314  20.3555441  31.0166621  41.2336636  21.5007591  30.5383706
  68.6613846  68.8694620  37.4053311  69.4458103  69.3855047  37.2193050
  67.9395914  69.4018173  37.0708990   1.5642273  12.8804004  57.7998781
   2.3508972  13.4215629  57.8671503   1.8159054  12.1632290  57.2180271
  59.9369287  18.1900680  25.0384116  59.4364977  18.8210034  25.5558300
  59.5292139  18.2132685  24.1726995  58.6344862  58.6223459  60.6848192
  59.4390678  59.0807819  60.9271288  58.1366348  59.2638731  60.1780510
  57.5527048  18.4317791  39.4670868  56.9049597  19.1364944  39.4730353
  57.4618053  18.0156648  40.3243017  44.3832493  75.5759382  44.6478891
  45.1582098  76.0477161  44.9530029  44.2855453  75.8417988  43.7335587
  78.8555956  15.1878273  39.2698288  79.3930149  14.7087884  38.6390090
  78.1739140  15.6002569  38.7393165  62.4415588  26.7260623  32.8894711
  63.3882761  26.8239141  32.7875900  62.0687628  27.2576213  32.1861196
  60.2866602  35.4797196  34.3978167  60.0998020  35.6783509  35.3153467
  60.8525276  34.7083688  34.4301724  60.7616043   0.2988969  30.2274179
  61.5466595   0.1927127  30.7646799  60.7751036   1.2186816  29.9627566
  36.0842133  79.9906301  46.7182159  36.2348604  79.7773647  45.7973146
  35.1611328  79.7835827  46.8641138  72.3225880  30.5124879  49.8591852
  71.8869352  30.0943327  50.6018734  72.7433681  31.2866330  50.2331877
  74.0657568  39.2557192  29.7617245  74.8725510  39.7145867  29.9957323
  73.3871651  39.6824360  30.2848506  80.6319237  36.0821676  24.7856784
  80.3006935  36.5190196  24.0010238  80.9122944  36.7968440  25.3573918
  61.5502167   0.7950574  40.1237440  61.4995575   0.0402716  39.5372581
  61.9231844   0.4450808  40.9328413   5.3234226  24.8649859  47.0918083
   5.1824242  23.9207816  47.0223093   5.8250290  24.9734163  47.8998089
  43.4844017  79.9746323  38.1266260  43.3515739  80.0557995  37.1821690
  42.6129961  79.7877645  38.4758639  81.9091225  13.4209144  50.9462547
  81.8776894  14.3772244  50.9195328  82.6283169  13.1884074  50.3589535
  48.7132978   9.4411361  56.0639858  49.3319798   8.9432025  55.5296421
  49.0229702   9.3227226  56.9619322  72.6189184   7.1254838  38.3278322
  73.1266642   6.4686209  37.8514314  71.7332220   6.7642087  38.3632255
   7.8825951  27.5496602  33.4437394   8.4057426  27.5082779  32.6432157
   8.3503824  26.9912529  34.0646958   8.4073770   2.9861793  39.2085457
   9.0276706   2.8188449  39.9180984   8.4547234   2.2035444  38.6594796
  69.2110014  28.7121153  17.5667989  69.0632105  29.4295049  16.9505692
  69.9796820  28.9823818  18.0691159  62.4643135  15.3219950  69.1803980
  62.8274679  15.5240238  68.3181143  63.1227255  15.6400824  69.7980928
  78.3121586  13.4426761  54.2138004  78.6860323  13.1010091  53.4015751
  78.8751554  13.0906928  54.9032784   2.4226339   7.6680404  49.7861719
   1.9510257   7.8105390  50.6068468   3.3429462   7.6175421  50.0444460
  51.4695835  80.1487160  49.5186949  52.3909569  79.9460459  49.6806335
  51.0007286  79.3554449  49.7777605  61.4476395  15.2698874  46.5567255
  62.2187281  15.5931115  46.0906935  60.7179976  15.4438925  45.9621048
  40.5700874   6.7731720  32.3828220  39.9280453   7.1565193  31.7852807
  40.0433922   6.3416547  33.0555868  68.0889845  22.7863646  40.8294821
  67.8897858  22.3250318  40.0147867  67.4443436  23.4928703  40.8684397
  30.9372330  77.3011732   1.2836526  30.7104826  76.3802385   1.4128909
  31.5355730  77.5037193   2.0028162  77.3106432  12.6778436  46.2040138
  76.8212795  12.0079160  46.6814566  77.9777479  12.1891820  45.7219267
  50.1600075   7.2894132  55.1555824  49.3470669   6.9785511  55.5539799
  50.6253815   6.4908606  54.9066401  54.7353554  12.9211164  39.9981022
  54.0718079  12.3985291  40.4484797  54.3924236  13.8144982  40.0204325
   4.2241800  39.3000150  50.0600672   4.7097358  38.4926200  49.8910093
   4.3965635  39.8479629  49.2943859  76.5317965  22.4859500  15.3391588
  77.1204376  23.1086683  14.9125981  75.8404064  23.0298352  15.7165122
  76.9349861  23.0948615  41.6651249  77.7621794  23.4002519  42.0375776
  76.6188145  22.4406242  42.2882128  82.1566296  16.2718916  42.9844046
  81.9021797  16.3521445  43.9036703  82.3709583  17.1654403  42.7163267
  27.4681783  78.0804729  38.1730318  28.1555223  77.5444841  38.5686421
  27.0080018  78.4677124  38.9176893  73.7478685   8.2432050  50.7652712
  74.3080997   7.7542078  50.1625586  73.8299227   7.7791458  51.5984249
  68.9521265  18.0982101  46.5194559  69.4518185  18.7067902  47.0636749
  69.0155602  18.4598923  45.6354904  57.0893431  18.0208921  18.2946348
  56.3324118  18.4841168  18.6533999  57.4675226  17.5626779  19.0451336
  72.1838093   2.2249989  18.4390748  71.4214945   2.6647234  18.8155711
  71.9228315   1.3063169  18.3746874  13.3304203  34.0227914  47.3329449
  13.0099189  34.6597815  46.6943884  14.0146303  34.4888330  47.8134584
  41.6942692  79.1725874  35.2396822  40.8481073  79.5722580  35.4409385
  41.5756607  78.7843561  34.3728280  66.2076950  24.8833227  34.0898180
  67.0091057  25.2084565  33.6796165  65.8747101  24.2269063  33.4778762
  62.3946953  39.2598319  33.8434505  61.9437027  39.4913483  34.6553874
  61.7982101  38.6550546  33.4022188  62.7129364  25.1898813   8.4118837
  62.8498030  25.7593942   9.1689533  61.8834734  24.7473645   8.5918963
   0.0015566   9.9383599  47.4207878   0.9074961   9.8178595  47.7053690
  -0.0041075  10.7963789  46.9965172  46.2569046   8.9474893  54.7474194
  47.0386219   8.9143723  55.2988338  46.5955877   9.0430856  53.8572598
  71.1600018  12.3655891  49.6183348  71.1402941  13.0413246  50.2959967
  71.9085073  11.8157828  49.8500347  44.5345020  77.1286154  42.2113848
  45.2705622  77.7299833  42.0982170  44.0310335  77.2112083  41.4014912
   3.8238847  10.4320550  57.3745871   2.9923171  10.7104909  56.9909191
   4.0770477   9.6624172  56.8648863  67.2199392  50.3528214  60.2114677
  66.4114904  50.8227062  60.4160547  66.9450569  49.6465397  59.6267986
  83.0246067  30.2124786  31.9921160  82.4235249  29.5735765  31.6090512
  83.8927746  29.8288774  31.8681407  75.7969189   6.9434047  49.5799541
  75.6848192   6.7227840  48.6552954  76.2422228   6.1837023  49.9551725
   4.2751253  47.8653288  58.0402565   3.5092545  47.7756310  57.4731350
   4.3123618  48.7993050  58.2465029  63.8408804  16.5029526  45.6779957
  63.5963249  17.4177003  45.5377769  64.4657469  16.3121486  44.9784470
  64.8460102  14.9813986  43.4128857  64.2635250  14.2225564  43.4461069
  65.2899647  14.9057603  42.5682497  57.0375252  22.9786682  35.4573417
  57.2457743  23.1756806  36.3706040  56.5151644  22.1776056  35.4982281
  16.0627496  71.4577723  64.6684456  16.6197324  70.7343388  64.9559355
  16.2970960  72.1844959  65.2456665  61.8966103  36.5393186  39.5052266
  60.9483051  36.4972997  39.6284270  62.1406221  35.6581283  39.2220378
  51.5602779  14.5134425  23.5163856  50.6546831  14.6773779  23.7795377
  51.5406847  14.5422196  22.5598192  65.3455544  19.0904808  40.0659180
  66.1467981  18.6506498  40.3501558  65.6143284  19.6130538  39.3103313
  69.9058962  10.4910338  44.4852209  70.7774401  10.3327549  44.1224670
  70.0681734  10.9686983  45.2986908  45.5972195  80.5327606  49.7504807
  46.5312862  80.3274536  49.7904253  45.3852510  80.5035591  48.8175011
  72.6754522  30.2592421  36.7860985  73.3565664  29.8712349  37.3354292
  73.1245089  30.4851103  35.9715056  70.8368397  20.4934883  58.7056351
  70.2891016  21.2784433  58.6980104  71.4832115  20.6591225  59.3919277
   1.0207486  34.3580151  32.0709372   0.8765823  35.2521896  32.3806143
   1.8430692  34.0917730  32.4821973  76.7708397   8.7119466  59.6229076
  76.3264942   7.9078543  59.3541527  76.1965609   9.0922517  60.2875900
  55.1131010   7.3156321  22.2191739  54.5690250   6.5286553  22.2488594
  54.5185089   8.0269998  22.4571824  84.9422169  27.6426816  51.1273241
  84.8953915  28.5523438  50.8331203  84.4417858  27.6287556  51.9431734
  59.4326019  12.2375798  34.3720913  59.8041296  12.6126802  33.5736561
  58.8719273  12.9293263  34.7233129  66.0439205  22.8581190  50.5097437
  65.6258345  23.0621123  51.3462973  66.2472725  23.7124634  50.1289845
  57.5496769  16.3571811  64.3975544  57.1946096  16.9796634  65.0321198
  57.8635597  15.6258059  64.9293423  66.2756051   0.0717608  10.4081607
  65.3219952   0.1214281  10.4744279  66.5926709   0.4480616  11.2291980
  81.5163708  13.9497364   2.9430020  81.0711575  14.7108305   3.3154967
  82.1820545  13.7205219   3.5915053  55.4136610  15.8171487  36.9499087
  55.8654356  16.6511798  36.8213630  56.1115694  15.1621842  36.9366765
  11.4941669  15.0021112  53.8442373  11.4274716  15.9058321  53.5359001
  11.7483509  15.0808930  54.7636986  84.6903896   2.5880620  36.7938590
  83.8501358   2.4272877  37.2232342  85.3265858   2.5988725  37.5089526
  75.7993650  37.5395441  25.9931207  76.6129017  37.8860664  25.6266356
  75.1854420  38.2726145  25.9490180  72.0092821  24.8961902  43.9112711
  71.8251181  25.8242083  43.7660313  71.7162657  24.4653320  43.1083155
  75.3290892  30.2238059  53.1980324  74.4701767  29.8874903  52.9423046
  75.9177685  29.4751740  53.1019020  46.6662598   9.6764171  49.2571545
  47.4220276   9.3074071  48.8001204  45.9934664   8.9985287  49.1935587
  68.3533955   7.3961586  29.1293859  68.4927416   7.3920733  28.1823921
  68.2669210   6.4718759  29.3627429  84.4166565  25.7877779  38.1813598
  83.5040188  25.8380747  37.8971243  84.7521019  24.9912572  37.7699447
  71.0945797  11.9355893  37.3602986  70.7741308  12.0624673  38.2532954
  71.5914822  11.1183381  37.3979950  60.5292177  31.8658662  61.9513369
  60.2005911  31.2822914  62.6352024  59.8476887  32.5312471  61.8563890
  64.6689034   9.3534595  46.9227457  65.3434420   9.3488270  47.6018667
  63.8426399   9.3620640  47.4059153  56.8143702  27.5041842  34.6990943
  55.9532022  27.5680518  34.2861223  57.2119522  26.7277050  34.3050861
  27.1491218  74.5847654   6.7710018  27.5344872  73.7158728   6.6580707
  27.2197652  74.7579384   7.7097529  49.8873234  68.8123512  55.5642986
  50.2212048  68.6171484  54.6887112  50.0415134  68.0104494  56.0637093
  60.3939915   5.1451176  35.1827574  60.9132767   5.4617321  34.4436169
  59.5333147   5.5455494  35.0597882  54.9672747  16.9520199  40.4947376
  54.5928192  17.5385213  39.8374438  54.4711924  16.1388373  40.4005432
  14.4922841  46.1613846   7.6569593  14.5433533  46.1967850   6.7017782
  15.0563478  45.4271936   7.8999245  78.5241318  31.8795443  49.5779467
  77.8826857  31.9950485  48.8769245  78.4633493  30.9523487  49.8078299
  17.6580215  11.3070655  52.9621887  18.4397495  10.8810973  53.3138752
  17.5738764  12.1123648  53.4727240  64.7503281  76.0788822  39.3556690
  64.6953201  76.6349077  40.1328707  65.2643013  75.3224325  39.6382451
   9.9289185  27.3306251  49.2152119  10.6537962  27.9477453  49.3149424
   9.4179523  27.4294877  50.0185633  67.8988838   4.0864691  35.7032347
  67.2742081   4.3451786  35.0256777  68.4325933   3.4075809  35.2903247
  60.6492805   3.4084216  29.7472453  59.9275255   2.9947728  29.2737556
  60.2641392   4.1968167  30.1297736  74.9691820  36.3741398  47.2540283
  75.5936337  35.9690237  47.8558397  75.4866123  36.5817857  46.4759636
  52.7001619  11.2490726  49.7170877  51.7453480  11.3166094  49.7153902
  52.8737640  10.3081334  49.6900988  15.7992065  31.0407734  25.2890587
  16.6977036  31.1372256  25.6047058  15.7307994  30.1193404  25.0390291
  58.6944628  25.1172233  34.7788668  58.1336451  24.4685602  35.2042484
  58.3525038  25.1815343  33.8871479  14.6278489  24.5690322  62.5100422
  14.3054914  25.0148821  63.2933283  15.4416370  25.0240040  62.2932863
  64.5511818  36.0168982  13.2371485  63.6044168  36.1499882  13.1907213
  64.6516705  35.1094770  13.5247600  81.3135624  26.4006209  54.5877123
  81.9933033  26.0654330  54.0030527  80.5020142  26.0154724  54.2571211
  80.6158257   8.2983744  67.9587221  81.5374088   8.3302134  68.2154226
  80.3798676   7.3732632  68.0274677  65.1310349  22.6664662  64.4067478
  64.8712873  22.3434997  63.5439301  65.4020357  23.5713911  64.2521477
  51.6139555   7.8777272   8.1819069  50.7287598   8.2398790   8.1430620
  51.6347218   7.2207904   7.4860370  68.4918022   0.1992164  40.8172274
  67.8267956  -0.3989151  41.1581659  68.6714029   0.7966422  41.5432119
   4.6674916  16.2897074  56.4472628   4.7000486  15.3719413  56.7172194
   4.6837783  16.7815793  57.2682571  22.0319700  58.1560326   1.8251696
  22.5397873  58.3138561   2.6210621  21.6975617  59.0185976   1.5794384
   1.7472582  46.0766077   7.6051939   2.2463782  45.5089569   8.1924635
   1.3529274  46.7306900   8.1821793  72.4435616  21.6211700  56.6041565
  72.6374340  20.9124637  55.9906530  71.7699909  21.2610030  57.1810532
   7.5760949  45.6488037   7.1395016   6.9360602  45.1477814   6.6339713
   8.2573998  45.0136232   7.3599523  43.7483597  10.4732513  38.5140872
  43.2912111  10.3355944  37.6844501  44.3998766  11.1470032  38.3196330
   1.4975274  21.2640071  46.4401674   1.7161424  20.3531480  46.6370869
   0.9037893  21.2112832  45.6912184   3.6769816  33.0949593  65.3355217
   3.4065673  33.3855748  66.2065268   3.5722098  33.8685822  64.7816610
  67.6296329  18.5247123  36.1545563  68.4991407  18.8429058  35.9117961
  67.1752357  19.2990756  36.4863992  25.0122428  78.1514215  25.6475592
  25.9086180  78.4039593  25.8688450  24.6141577  77.9210091  26.4870048
  19.5984149  47.8685570  10.2393448  20.1353049  47.1053362  10.0260937
  18.8395536  47.7968931   9.6603584  83.4959030  10.7650447  44.4299316
  83.0280685   9.9982786  44.7607374  83.4173679  10.7013142  43.4780931
  69.6532726  22.8850269  58.5568953  69.3101168  23.5307956  57.9392719
  69.3713856  23.2011819  59.4152784  47.2926044  60.1049614  28.8573575
  47.2153425  60.3349352  29.7833014  47.3853254  60.9454298  28.4087515
  55.5552912  11.3825548  42.8362656  55.9816170  12.0396960  42.2861385
  54.7090721  11.2304568  42.4155331  52.4981403   1.1910672  36.3897562
  52.9716253   0.4252070  36.7145729  51.7829418   0.8269933  35.8680582
  55.8634281  11.3875151  28.7962890  56.0631371  11.8520761  29.6090221
  54.9477577  11.6012013  28.6170626   4.4127905  12.4792039  31.2499046
   3.8652253  12.5769567  30.4708982   4.3494070  13.3243513  31.6948104
  60.7062387   1.7935470  51.8134832  59.8424959   1.6180806  52.1868420
  61.0145187   2.5714928  52.2782373  82.7118015  27.1511459  44.0575743
  82.2091198  27.4498701  43.2997465  83.6245060  27.1972632  43.7728548
   0.4535368  19.6124017  52.3015976   1.0071428  19.7385919  51.5309954
  -0.0584881  18.8284528  52.1028900  56.0310221  34.9206305  56.6104078
  56.6823339  35.4328203  56.1311531  56.2532282  35.0528216  57.5320292
  13.0367625  21.9606638  43.1603146  13.2349110  21.8492699  44.0901327
  13.4588397  21.2145448  42.7344131  70.0943422  37.2804236  47.1871328
  70.1507664  38.2357693  47.2061682  70.9007502  36.9844079  47.6094151
   9.6567893  34.8564386  34.6867180   9.0143114  34.1780472  34.4787812
  10.1596463  34.9655485  33.8795877  77.6406145  17.2432530  43.5926437
  76.6866875  17.1726990  43.6283684  77.8211594  17.6142526  42.7289343
  83.3806133  30.2472758  27.4402881  82.9746819  31.0797858  27.1986747
  82.7845287  29.8687959  28.0865550  69.3273783  32.9416466  51.0177803
  69.0172482  32.0423460  50.9114456  69.0286493  33.3929515  50.2282763
  20.7232356  25.6513548  61.4058399  20.3093195  26.4012766  60.9786129
  20.6606674  24.9448919  60.7630157  23.4967756  56.5957355   0.1106993
  23.6096644  55.7810068   0.6002904  23.0710626  57.1896696   0.7289587
  14.9160385  27.6954055  49.4799614  14.0565026  27.9232311  49.8342562
  14.7278464  27.0770979  48.7739086  16.6756427  30.6279945  21.4213109
  16.2552476  30.1613331  22.1436167  15.9692752  30.7862258  20.7950187
   0.7958972  27.8060269  54.3439770   0.5277719  26.8880033  54.3836451
   1.3796085  27.9177046  55.0943375   8.9995819  19.5958292  48.1511354
   8.4302056  20.3105855  48.4360313   9.8867422  19.9382091  48.2604694
  49.9639273  77.6498413  14.5596647  49.2347956  77.1135902  14.2481661
  49.5573330  78.2926226  15.1408243  19.9090970  26.8108273  56.0296059
  19.5395386  26.1434722  56.6077852  19.2022896  27.0153427  55.4173708
  70.2805424  46.7465782  42.2790813  70.4352999  47.2349596  41.4705276
  71.1560440  46.5682745  42.6224995  74.4346285  43.7120295  48.2381296
  73.8654518  43.6894846  49.0073872  74.9563360  44.5068073  48.3494043
  11.4622855  29.1633677  22.7835512  12.2447753  29.7146392  22.7771854
  11.0041189  29.3884754  21.9738340   8.0095321  32.8591633  67.8147554
   7.5776005  33.2230806  67.0419455   7.7153474  33.4140229  68.5371208
  14.2167568  57.2098732  27.8825974  13.3267367  57.0347261  27.5769520
  14.1691923  57.1027231  28.8325906   8.4821135  37.1936226  54.4502449
   7.9988360  37.3900700  55.2527905   9.3931097  37.3954344  54.6637583
  75.7788992  48.6336231  30.5603027  75.9425402  48.9402962  31.4521575
  76.5899801  48.8239670  30.0889730   7.1790308   5.8266407  43.6281824
   6.6413671   6.6065699  43.7655115   7.7526748   6.0568374  42.8973103
   8.1588000  72.1056080  11.1092019   8.8128006  72.7749062  11.3105905
   7.5735390  72.1070480  11.8666315  14.4630098  10.7176661  55.8316565
  15.2461040  11.1680830  56.1480761  14.0559030  11.3399029  55.2289009
  16.1943328  20.9018826  40.5286884  17.1003211  20.6141996  40.6411839
  16.2666857  21.7946196  40.1910257  43.5845852  18.0174398  52.4153090
  44.0578699  17.9345274  51.5874434  44.0049744  18.7542129  52.8587866
  70.1551199  12.1842444  39.9713302  69.3601704  12.2833824  40.4952192
  70.7063150  11.5914881  40.4822683  19.2665863  23.2999420  28.1922817
  19.7884643  23.0465269  28.9536333  19.8252618  23.0992293  27.4413991
  62.3607159  33.9375663  11.6552997  61.5727329  33.8125181  12.1841443
  62.2905350  34.8348284  11.3293803  82.7639866  41.6288137  37.3846531
  82.7053165  40.7172728  37.0985031  82.4674320  42.1365213  36.6293216
   1.8970756  38.9943528  30.2429104   1.1521801  39.4381738  30.6483531
   1.5025668  38.3131981  29.6982765  82.0774746  16.6403496  45.8773708
  81.3825417  17.1614349  46.2795782  82.0547676  15.8070183  46.3477707
  85.0600624  21.2722874  49.2900038  84.1376019  21.2272000  49.0384769
  85.2247906  22.2047257  49.4301891  62.0700693  15.9025466  39.1448402
  62.7817583  15.3174269  39.4043827  62.4934053  16.7508936  39.0132165
  63.4319782  27.1587563  65.8981180  64.3222332  26.8322229  65.7675314
  63.5426760  27.9546666  66.4182186  63.7531853   0.5791422  36.7710638
  63.2232761  -0.1160533  37.1611023  63.7875557   0.3602675  35.8398581
  67.1002436  26.6268682  47.2398472  66.9384956  27.4341416  47.7280903
  66.3754225  26.5744376  46.6168547  74.8730850  70.6490231  43.9287758
  74.2677879  70.2061653  44.5235252  75.1398039  71.4373159  44.4017267
   5.9715551  41.2243080  43.8290596   6.2130940  41.4926100  42.9425478
   6.7298841  41.4571333  44.3647480  70.9101725  14.8593092  39.0926576
  71.7966127  14.5202661  38.9681673  70.4359531  14.1415381  39.5123649
  73.5674429   9.5500124  54.2220783  73.0645609   8.7939870  53.9191484
  74.4814968   9.2973155  54.0921545  63.6419582   3.5391605  46.6100979
  63.0423927   3.5339826  47.3562431  64.3773985   4.0802020  46.8975544
  55.2510357  26.2273884  65.0626993  56.0758686  25.8524966  65.3714752
  54.6813202  26.2189436  65.8318472  80.2436352  55.0735426  45.8341932
  79.5491695  55.0885534  46.4927673  80.0115490  54.3453264  45.2579403
   0.9698944  48.8421965  46.0119200   1.1903290  48.6521482  46.9237995
   0.8174908  49.7870207  45.9942579  17.0517278   2.4384488  12.4738646
  17.3844135   3.2657960  12.8217852  17.7344632   1.8000560  12.6801622
  83.5393620  13.9047694  46.9397926  83.7554264  13.3453095  47.6858187
  84.1132736  14.6647489  47.0361948   3.3013186  65.0700998  40.3009748
   2.9685989  65.3731394  41.1457777   3.1039920  65.7847548  39.6955276
  62.4831867   6.2948287  65.5074024  61.7594719   6.5179563  66.0927916
  63.1247997   5.8649153  66.0728598   7.4475950  29.5969534  24.6182084
   8.0019850  28.8202500  24.6931601   7.3737407  29.7484851  23.6759686
  12.9516792  18.5069966  36.4176035  13.8578308  18.6511374  36.6902661
  13.0171859  18.2378459  35.5013609  58.5434437   3.5209161  33.4360147
  57.9134464   3.6962956  34.1349983  59.3896723   3.4785369  33.8813615
  82.0155048  39.3717670  35.7523513  81.6597652  38.5035110  35.9415889
  81.6597080  39.5940757  34.8919940  58.6027575  18.9433134  13.0134010
  57.7668619  18.9779103  12.5483119  58.7788773  18.0085433  13.1202710
  81.3932133  26.0167027  23.4072709  81.9288540  26.6258574  22.8990889
  81.8129921  25.9884834  24.2670488  73.1243801  32.2134757  29.8574591
  73.1150675  33.1226945  29.5583534  73.0010414  32.2717404  30.8048916
  73.9628792  41.6987419  51.2884951  73.2793808  42.2800827  50.9551716
  74.4781780  42.2486305  51.8786860  58.8418818   6.8962848  43.7343311
  58.1791210   6.2087643  43.6687517  59.6161270   6.4506006  44.0780401
  81.9083118  35.5212450  31.4941978  82.8585148  35.6338501  31.5200806
  81.7556190  34.9460983  30.7444477  78.6586237  37.9403234   6.3469547
  78.0006504  37.5658274   6.9326597  79.0017462  37.1901941   5.8613575
  67.4783564  61.0302305  48.8932943  68.0761814  61.7025757  48.5664988
  68.0524492  60.3349018  49.2144871  63.6278582  29.2379403  34.8886323
  63.5143042  28.8188744  34.0355682  64.5621014  29.4415283  34.9330139
  73.7247181  26.7356849  37.7860332  73.2956839  26.2620521  37.0734096
  73.0378485  26.8550897  38.4419179  71.4200163  40.1799726  55.7113552
  71.2945127  39.3814063  55.1987410  71.5022230  39.8742747  56.6146946
  18.7822449  21.8138337  35.2044058  18.1097817  21.1369133  35.2806091
  19.2885482  21.5625811  34.4319034  11.8868804  33.1070662  44.5266771
  11.5825367  32.2693992  44.1775084  12.7061093  32.8963733  44.9746752
  78.0427599   4.5610198  61.2269878  78.9298820   4.9205208  61.2239742
  78.0107117   3.9959180  60.4550648  60.1887083  39.4282579  59.2951202
  59.5061874  39.2217922  59.9336910  60.5014801  40.2959871  59.5509577
  50.6563997  36.3172698  55.3313208  50.1943970  37.0779800  55.6836081
  50.7386398  36.4993548  54.3952084  67.7180099  24.6551251  31.5400624
  68.2649469  23.8985515  31.3286686  68.2064199  25.4057026  31.2019539
   5.2964306  23.3564329  38.8358688   5.8512878  23.4760499  38.0651164
   5.5272925  22.4876332  39.1646838  14.4712162  40.0501585  46.8305016
  13.5983169  39.7328544  47.0620108  14.5825040  40.8459949  47.3505926
  80.1352024  20.7987714  21.2387323  80.0363731  20.2761436  20.4429150
  80.8067894  20.3408074  21.7441654  58.5153723  35.6522179  39.6759391
  58.1735659  36.3127589  39.0733743  58.8511610  36.1555219  40.4176712
  84.1788006  25.1208520  49.7955894  84.3842602  25.2470088  48.8692522
  84.5182610  25.9059358  50.2252960  84.6890640  32.1230507  29.2629099
  84.4114304  31.4527750  28.6385059  85.3164005  31.6759729  29.8310637
  71.4713430  31.1871004  43.3672714  72.1567678  30.5190015  43.3752728
  71.0459614  31.1040616  44.2207289  67.4192238  18.3696508  43.1342363
  66.8624687  18.1867802  43.8910818  68.2384586  18.6902750  43.5114384
  82.5347042  12.5034726  34.3693304  81.8272495  13.0540264  34.0337253
  82.6092815  11.7939031  33.7312222   8.2076091  24.0020347  42.1828127
   8.9502943  23.4422731  42.4093533   8.5945827  24.8647642  42.0338869
   5.6201667  21.4872599  61.5483856   5.4357654  20.5480599  61.5368938
   6.5574574  21.5495872  61.3644505  61.6309166  40.2699566  38.6856103
  62.5127268  40.5907202  38.4965110  61.4423656  40.5930042  39.5667005
  19.6400309  76.9229269   7.1610767  20.2639794  77.1992445   7.8323209
  20.0816870  76.2075424   6.7034817  84.5700169  37.1490049  53.0587530
  84.9966049  36.4833450  52.5191689  84.6080589  36.7969370  53.9480400
   4.4976634  39.3900299  23.5558724   3.8740861  39.9826431  23.1361222
   4.4176310  39.5809031  24.4904280  11.1943042  27.0895624  13.1172431
  10.2536988  26.9134212  13.0955720  11.5982437  26.2687016  12.8357232
  70.1541471  45.7372522  46.1765146  70.1771879  45.7680559  47.1329403
  70.0231123  46.6474056  45.9106493  71.7680979  21.5535665  53.8939953
  70.8386517  21.7476892  53.7728357  72.0718098  22.2148347  54.5158577
  25.4523349  70.8179283   4.0338549  25.2480745  70.1717186   3.3578971
  26.3481474  71.0932827   3.8390914  77.6573706  22.0171547  60.8303547
  76.8455791  21.5263867  60.9583139  78.3380032  21.4548945  61.2002659
  19.0423834  50.1483679  41.6922140  18.9264703  49.4274759  42.3111725
  19.2299259  50.9087563  42.2425556  70.6509209  36.6578460  29.8894382
  71.0909319  37.0154381  30.6606388  71.0576534  37.1101546  29.1503716
  85.5911350  21.9937634  55.7081223  86.2525749  21.3409305  55.4788971
  85.9242058  22.4017477  56.5074062  61.8779230  26.0726237  27.9795289
  62.6474810  25.9288836  27.4287510  62.1103191  26.8246460  28.5242200
  82.3883724  19.7275996  45.7681799  83.3337402  19.6843088  45.9118366
  82.0431328  18.9521146  46.2105227  66.7095900  33.2154536  35.5844951
  67.5991297  32.9389358  35.3642893  66.5887690  32.9337573  36.4912939
  66.7461538  14.7129309  59.0341043  66.4202642  14.6912754  58.1343508
  65.9653139  14.5930207  59.5746088  11.8277359  31.7950082  58.6737108
  12.7235615  31.5727663  58.9273596  11.7298830  32.7144980  58.9210987
  74.0682411  27.7601743  42.3792696  74.8479319  28.3000970  42.2496510
  74.2531586  27.2592330  43.1736803  72.9309130  37.2491860  28.2427168
  72.8974152  37.5727129  27.3424721  73.4794188  37.8831124  28.7047911
  56.9154739  18.6668515  60.0471878  56.0822868  19.1228878  59.9286079
  57.4129438  19.2277551  60.6422853  74.6575737  17.3981667  43.2119370
  73.8447714  17.8166294  43.4956121  74.6635199  16.5548766  43.6647701
   3.1796420  26.6616368  49.2349911   2.4583897  26.3428950  49.7776079
   3.7134206  25.8852792  49.0659380   7.4278045  30.6766272  51.5695524
   6.8254697  30.1320362  52.0763540   8.2727146  30.5697465  52.0065165
  66.3435936  37.5476837  41.9983053  66.3188887  38.0337262  41.1740541
  66.0358858  38.1730270  42.6544237   9.0229118  17.6321733  46.0430861
   8.1988907  17.1665752  46.1860561   8.9520532  18.4168839  46.5866327
  79.5507812  32.9371619   2.0319946  78.8500738  32.2854209   2.0101400
  80.0513649  32.7775669   1.2318841  80.4662704  22.2172093  34.1647673
  80.1958466  21.6624832  34.8964643  81.3647079  22.4710703  34.3759489
  65.3733921  14.7001731  38.8441873  65.1501703  13.9276314  38.3249736
  65.6049156  15.3655493  38.1961870  59.6331882  51.4500904  20.6462932
  58.8664055  52.0229197  20.6583095  60.3282499  51.9718552  21.0474014
  71.6808414  41.3812923  41.7422485  71.1000299  41.4321470  42.5013971
  71.1063433  41.1353922  41.0171843  61.9349337  18.7957323  44.4142151
  61.7840147  19.4496882  43.7317228  62.2886467  18.0389905  43.9468193
  76.3039112  27.6221418  46.1401129  76.9922209  28.1818008  45.7806110
  76.5566778  27.4884129  47.0535994  69.5894146   7.9323351  66.0760498
  69.7151899   8.8626993  65.8894062  69.6697283   7.5040787  65.2237701
  83.4194183  42.0832825  56.5805387  84.3573666  42.1760082  56.4135265
  83.0353355  42.8938198  56.2462664   0.2335538  34.5448709  25.7195997
   0.8293574  33.8123608  25.5625033   0.3742236  35.1316285  24.9765253
  65.2751446  52.8945112  47.9433155  65.1463366  52.0547104  48.3841991
  64.5268869  53.4254789  48.2161093  68.7812757   4.2425576  40.0164843
  69.2045355   3.8714856  39.2422843  69.0470839   3.6671212  40.7337379
   2.9155308  26.8394494  41.9318962   3.5633633  26.2665343  42.3421526
   3.4090105  27.6221991  41.6869211   7.0895547  43.9237690  39.6940923
   7.2932297  43.6147499  38.8113379   6.4655572  44.6371460  39.5601034
  70.4994678  22.0558786  18.3683240  70.7629442  21.3477826  18.9560413
  70.1342058  22.7245903  18.9476681   8.6313570  52.1964693  29.0642452
   8.8647383  51.3762474  28.6295056   9.4716835  52.5964022  29.2881608
  72.7366352  26.7563319  56.2043667  72.5912714  26.4654756  55.3040886
  73.0429888  25.9736609  56.6624117  34.9746299  74.9659300  12.3381364
  34.5015931  75.7945251  12.2613645  35.3954196  75.0090265  13.1968033
  19.6121275  29.4124627  17.8231692  20.2686095  29.3306398  17.1313822
  18.8240600  29.7137928  17.3710835  73.8264894  14.0707338  36.7797780
  73.7291670  13.1194460  36.7372084  74.3538713  14.2921245  36.0122561
  83.8836575  33.7619448  24.5640922  84.2506981  33.2640958  23.8335729
  84.6319771  33.9367509  25.1347828   3.4694335  36.6142249  61.3470125
   3.4226859  37.4219489  61.8585062   3.3911595  35.9149313  61.9959307
  82.2060776  19.4791460  42.7394438  82.4265862  19.6741974  43.6502504
  81.6932869  20.2338934  42.4502468  17.9768252  24.6240997  35.4241896
  18.7762225  25.0542903  35.7277203  18.2463992  23.7260365  35.2317238
  64.7130537  19.2517197  16.4672315  63.8582993  19.1988909  16.0396338
  64.5118904  19.2736053  17.4027991  67.8670788  16.9201148  48.9354467
  66.9897938  16.5650237  49.0786648  67.8196049  17.3357964  48.0745220
  79.5070839  44.2327929  40.9541035  79.6934843  45.1498032  41.1555386
  80.1707268  43.7415218  41.4383173  16.8472683  25.1101017  47.4851370
  16.3346016  25.0051665  46.6836405  16.2444866  25.5245662  48.1024742
  76.1234522  35.6260538  31.2981915  77.0488453  35.6285357  31.5428829
  75.7756901  34.8223281  31.6846037  71.7855215  37.2028089  51.6714191
  72.2029257  37.9272866  51.2054348  72.2119617  36.4185262  51.3260460
  15.1665127  51.2536144  35.4943180  15.1486528  50.3433704  35.7898974
  14.2447102  51.4903212  35.3919291  69.6097469  16.4872670  32.3138809
  69.2923212  15.8249497  31.7000341  69.5112324  16.0820878  33.1754827
  67.0923471  40.9077358  46.1045647  67.9330540  41.0741854  46.5308762
  66.8634319  41.7410088  45.6928778  84.9811935  23.3685589  52.3535013
  85.7660007  22.8706217  52.1246624  84.7092628  23.7778974  51.5320778
  76.4514542  20.4585838  56.4192343  76.0100174  19.6718264  56.7392015
  76.2983131  20.4516530  55.4743910   1.2165860  16.1788797  64.8576641
   0.6938319  15.3896379  64.9992847   1.0249341  16.7321765  65.6148672
  72.4102640  45.4346848  25.6064725  72.9148626  45.5904913  26.4048076
  71.8291283  46.1922598  25.5387616  14.7278392  45.7997131  66.9486141
  13.8980675  45.6302547  66.5025282  15.2659702  46.2433863  66.2930202
  20.6349015  18.3924639  56.5628624  20.2233386  17.5430644  56.7221403
  21.2440276  18.2320774  55.8421183  66.3548326  24.0034056  36.9013667
  65.8706999  24.5755196  37.4967957  66.1736822  24.3561053  36.0301495
   5.7321179   8.8220716  34.5000577   5.9377497   7.9712456  34.8874116
   6.4087093   8.9525723  33.8356590  68.9487791  29.5738816  43.5135555
  69.0020323  29.1810751  44.3848181  69.8051214  29.4035316  43.1212711
  79.7050571  12.7962816  41.4939356  79.1484165  12.0497656  41.2723684
  79.0908957  13.4899378  41.7345142   6.3408464  26.0207248  49.5352840
   6.4746094  26.8792725  49.1337442   6.0956758  26.2149930  50.4399300
   5.4824793  19.8009408  52.5763702   4.5577639  19.9023712  52.3508787
   5.5074131  19.0309787  53.1444979   4.0578648  57.5412655  23.6427164
   4.0129468  58.4274435  23.2836914   4.9626696  57.4493599  23.9412355
   8.8663727  37.7510428  48.4215355   8.4019697  36.9268084  48.5671377
   9.5364785  37.7723145  49.1047144  80.0781250  40.3250933  49.9706411
  80.5730343  40.3278589  50.7899666  80.5020237  40.9936523  49.4325161
  83.7550831  13.8598728  17.2186017  83.3373356  13.7490714  18.0726790
  84.6672726  14.0656328  17.4230337  68.0284643  29.3518615  31.0634589
  68.6708927  30.0592852  31.0080934  67.5378370  29.4091654  30.2435589
   6.8220764  68.0064964  16.3879251   7.2533500  68.5858727  17.0160604
   5.8871704  68.1243658  16.5561175  65.1245737  16.7589402  54.8462486
  65.8236599  16.3303459  54.3524694  64.8983145  16.1326349  55.5338430
  23.8698602  22.9226780  60.4735518  23.8440132  23.1687832  61.3982105
  24.5936465  22.2993445  60.4117441  73.0241346   9.0652442  47.8800488
  73.3768034   8.3820671  48.4502459  73.3724356   9.8809755  48.2399130
  48.9560699  11.7387223  21.3521051  48.1256771  12.1688950  21.5561366
  49.5526266  12.4571228  21.1417294  59.4923925  35.2774286  44.2337227
  60.2730608  34.9325490  43.8003159  59.4368887  36.1865330  43.9393091
  82.0992184   7.1146661  33.2763767  82.0631123   6.1785126  33.4727025
  82.6741409   7.1774280  32.5136495   9.2436653  28.5360694  31.3374066
   9.1556340  29.2147279  32.0066643   9.9103189  28.8742876  30.7395673
  81.0003757  20.3422785  69.5304060  81.4950752  21.0318804  69.9730730
  80.1987457  20.2539396  70.0459719  67.8605700  44.2626476  45.0451279
  67.3783779  45.0595284  44.8244476  68.5399580  44.5543957  45.6530333
   2.6039103  24.0799308  56.2606812   3.0267981  23.2270479  56.3606262
   3.3240849  24.6850610  56.0834885  76.5911007  35.1445746  24.8610663
  75.8780813  34.5073748  24.9036312  76.3285780  35.8385229  25.4658413
  72.9486465  21.0419321  28.6435485  72.0840740  21.3539553  28.3763623
  72.9081917  20.0930405  28.5243988  70.7394361  38.2382417  40.4511976
  70.6854486  38.3693385  39.5045590  70.3494120  37.3762250  40.5962467
   6.8190289  61.3279915  52.5150728   6.9758523  61.4026880  51.5737677
   6.8943310  60.3912306  52.6968431  76.0387468  28.0823064  30.9408140
  75.5232716  27.2906351  31.0949922  75.4069233  28.7177563  30.6043077
  58.1150436  25.6388450  65.2163315  58.5638714  24.8437238  64.9289942
  58.4217739  25.7764459  66.1125565  84.4553852  29.7992492   4.7661430
  84.5886135  30.6908059   5.0880313  83.5124874  29.7382951   4.6129858
   3.4215191  30.6117082  62.3778105   3.3454281  29.9524331  61.6880274
   4.2208111  31.0923791  62.1625948  60.9213448  29.1132307  53.6102009
  61.1552095  29.6997809  54.3295717  60.6817484  28.2917690  54.0391874
  61.0534716   9.1568154  48.0340624  60.5342722   9.2843610  47.2400904
  61.4496422   8.2923174  47.9248762  81.4776993  16.3688052  23.5735464
  81.7686462  15.8011830  22.8598332  82.2866726  16.7226720  23.9431143
   6.0847986  29.3979096  53.7577343   5.4435515  29.8233247  54.3269968
   6.8312973  29.2190552  54.3295574  16.3391960  47.4120665  65.3150272
  17.2945225  47.3686647  65.2738094  16.1362231  48.3398676  65.1957798
  76.2785196  10.0581288  33.4064245  76.7141771  10.7118011  33.9533663
  76.8172932   9.2722046  33.4973931   5.1375216   4.7195089  54.5820618
   5.7526261   5.4418874  54.7087383   4.5710218   5.0098675  53.8672209
  77.0617914  23.3721757  45.2794409  77.2328520  23.8454890  46.0936546
  76.1811829  23.6464477  45.0234413   8.4354299  16.4114857  59.2248678
   7.7028108  16.2137163  59.8082924   9.0946174  15.7501686  59.4354916
  76.0531759  49.3960762  33.1282568  75.4294300  49.8184204  33.7188458
  76.3352489  48.6117363  33.5988760   3.6059776  31.6808128  59.3780470
   2.9465643  31.0377240  59.6385193   3.1037506  32.4698353  59.1744709
  54.1865063  26.2222981  56.7538548  54.2231464  27.1731567  56.8575716
  53.5937309  25.9285760  57.4456453  82.7347279  34.8133612  11.3987112
  81.9473839  35.3225279  11.5912592  82.4520302  33.9012027  11.4641535
  65.1406717  56.8730688  31.2048411  64.4079924  56.3904810  31.5876269
  64.7668123  57.7183819  30.9560275  55.7745171  46.3482046  52.5928068
  56.5786552  46.2195587  53.0958366  55.1131010  45.8424807  53.0650425
  71.8039274  38.5527921  35.0628734  72.2301960  37.7229857  34.8485112
  70.9949732  38.2987714  35.5070543  72.6902485  49.3730879  22.4231648
  72.0788908  49.6537161  23.1041360  72.2641993  48.6196184  22.0145106
  67.9052734  41.0406113  42.4919510  68.6029816  41.1177588  43.1427050
  67.5061321  41.9101906  42.4645042   6.5702224  38.0109167  65.0416327
   6.3485628  38.8322401  65.4804134   7.5216973  37.9451561  65.1228857
   3.8233471  44.4971228  43.0701923   3.7788430  43.6998606  42.5423431
   3.1294471  44.3924189  43.7211704  79.0599775  41.6419840  34.2196727
  78.7296963  41.4721060  35.1018763  79.3539333  40.7870340  33.9052200
  66.0715437  58.6112738  15.9937656  66.8213749  58.4070444  16.5525830
  66.0601759  57.9099274  15.3424430  13.2354009  48.5928011  54.8713970
  12.9699719  48.0578995  54.1232920  14.1917396  48.6021376  54.8318672
   3.8264817  54.3394899  58.0063438   4.4592750  55.0374413  57.8370190
   4.1815996  53.8725376  58.7627029  79.2640114  38.4892821  38.2466888
  79.0971661  39.2364359  37.6720953  80.0900841  38.7011886  38.6813617
  69.9890184  40.8573008  51.6784000  70.1400661  41.7021608  52.1022224
  70.7257748  40.3139448  51.9580221  73.7219715  39.7150993  45.1292229
  74.1344404  38.8912749  44.8695803  74.1220951  40.3729439  44.5605659
  67.8353024  52.2446585  46.8933582  66.9747734  52.2198486  47.3118067
  67.9116583  53.1369495  46.5553951  80.0687504  24.6173239  35.5248213
  80.7290077  24.6985936  34.8365688  79.8626900  23.6829042  35.5499101
  60.4225016  45.1623154  66.4759302  59.9504805  45.7206583  67.0937347
  61.1060429  44.7473812  67.0020819  77.8789473  17.7195048  40.8601809
  78.6790895  17.5112915  40.3778410  77.3804331  18.2807243  40.2662563
  72.2350788  36.0888386  48.3570433  72.2715425  35.7378745  49.2468357
  73.1515980  36.1632013  48.0911589  63.8519859  29.6538019  47.7559423
  63.8641548  30.5523753  48.0855608  64.4300508  29.1734147  48.3486462
  19.6699476  70.5108500  14.1098440  18.7610829  70.2645826  14.2817461
  19.7131205  70.6192923  13.1597877   2.7962348  65.1431656  42.8967285
   2.1875541  64.6750927  43.4682608   3.6252978  65.1389933  43.3751297
  23.1645012  64.4634962  62.5194454  22.7397704  64.3973207  63.3746958
  23.2499790  65.4045486  62.3666477  85.0407982  49.8564863  22.6315594
  84.6622181  49.7546673  23.5047960  85.9559822  50.0861645  22.7925658
  81.6186428  30.1437807  39.5526505  80.9853935  30.6904364  39.0874600
  82.1941757  30.7676387  39.9951410  70.3514290  45.9255791  48.9191437
  70.7604933  45.9468603  49.7842741  69.4484043  45.6566000  49.0877342
  78.5119247  46.3072300  37.2906184  78.4799814  47.0142603  37.9350758
  78.8045359  45.5432463  37.7875447   1.8527691  51.1024475  14.3510795
   2.3427445  50.8724022  15.1405311   2.2866204  51.8890905  14.0206313
   3.3099344  72.6949644  22.3800325   2.6278830  72.0835972  22.1020675
   2.9135066  73.1845570  23.1007123  80.1102543  59.6064329  36.6470742
  80.8142853  58.9701939  36.5215206  79.5630360  59.5151711  35.8670402
  84.6432400  74.4565725  33.2210255  85.0541115  74.0869427  34.0025568
  84.5648384  75.3914404  33.4110498   9.4597262  64.2899466  43.8318062
   9.4965976  63.5300541  43.2509136  10.3346074  64.3396664  44.2169619
   6.6476315  56.8742704  34.2341304   6.9054210  57.5911093  33.6545444
   5.7204688  57.0319271  34.4122982  21.4658952  77.5809336   3.5622132
  22.2536325  77.3735476   3.0595246  21.5865278  78.4914684   3.8316715
  84.4750786   6.5328515  44.2826986  84.9878120   5.7296383  44.3731403
  84.3716621   6.6458684  43.3378363  38.7200475  65.4596949  69.3968391
  39.5223212  65.1057196  69.0130568  38.9159036  66.3838291  69.5512724
  54.6696901  16.1589694  20.8344102  54.1308069  16.5239632  21.5362763
  55.3810310  15.7074869  21.2887096  43.2914877   9.9822301  16.0117114
  42.4270535  10.2437139  15.6945109  43.1843233   9.0674776  16.2724352
   7.9085129   8.3835101  36.4704633   7.4465865   8.9228851  37.1122813
   8.1754607   7.6051658  36.9594932  82.8076458  76.5113974  20.8673048
  82.5251198  77.3756599  20.5681992  82.1957493  76.2889338  21.5689683
  73.4351110   3.2012457  38.6043215  73.1488991   3.3586177  39.5040703
  73.4905005   4.0737295  38.2145333  80.5581093  23.2562971  51.5843725
  79.7451735  23.0585861  52.0494223  81.0607433  22.4426532  51.6241121
  15.0288665  31.2969780  19.2730880  14.2738700  31.8283772  19.0204489
  14.8870754  30.4567695  18.8369954   7.1719295   7.6973152  29.9991727
   6.3127267   7.3494577  30.2379155   7.7917063   7.0343029  30.3033519
  62.1380186  21.5264630  29.3863678  61.9123983  20.6644344  29.7359896
  63.0273390  21.6875291  29.7016501  64.7374582  11.5726519  44.4471645
  64.0710497  10.8885741  44.3826056  65.5569696  11.0967350  44.5818233
   2.0966642  36.1102414  40.1542187   1.7766580  35.8716702  39.2842126
   2.8107756  35.4957533  40.3235769  73.9746714  20.9186029  12.3334050
  74.9318266  20.9245300  12.3262954  73.7320137  21.7924857  12.6394749
  28.8338399  75.2029610  35.4390907  28.5421681  76.1058950  35.5650687
  29.7260928  75.2842808  35.1021862  79.9839735  20.4672003   3.0847198
  80.1796055  20.5653715   2.1528824  79.4876719  19.6506214   3.1405264
   8.5889906  26.0871410  30.2150869   8.9806688  26.9212890  30.4739690
   7.7244103  26.0907865  30.6258416  47.6854944  74.5556355  36.4915586
  48.1349039  74.6831608  35.6560969  47.1627665  75.3493023  36.6059351
  81.4647865  19.1688085  23.2148051  81.3480949  18.2288396  23.3529210
  82.4129200  19.2982948  23.2371688  78.5436678  42.1910191  17.8106964
  78.1615973  41.3134813  17.8242862  79.1945314  42.1797609  18.5124636
  56.6724682  17.1441388  30.6083083  57.5320721  17.5634730  30.5700040
  56.8068838  16.2852693  30.2076721  52.6702452   9.9667603  15.0354874
  51.7787266  10.0073195  15.3815913  52.6169777  10.4023886  14.1848278
  76.1068916  21.7047191  39.4429445  76.4519691  22.2335148  40.1623392
  75.8109808  20.8959293  39.8607087  12.1107292  40.2831984  36.9287324
  11.5354991  39.5558596  36.6914058  12.2148871  40.7806873  36.1176300
  14.8001313  29.2423844  17.5065207  15.4550052  29.6980953  16.9776523
  14.0643930  29.1042900  16.9099891  11.1120772  22.5058460  34.6852756
  10.4821908  22.2506738  35.3593397  10.8316422  22.0305490  33.9031744
  74.9148369  16.5034485  32.1644115  74.2943382  15.8465159  32.4800873
  74.3702459  17.2562420  31.9342899  13.8801229   9.6716928  42.2111320
  14.0329468  10.2397978  42.9662037  13.0049324   9.9099737  41.9053602
  59.6017075  34.4106531  32.0296764  60.4790211  34.4661379  31.6508937
  59.6594954  34.9130535  32.8423762  46.5301847  77.0766354  35.4065537
  46.4344835  77.7711868  36.0582232  46.6994047  77.5396872  34.5860791
  44.5455456  72.2567320  33.7363672  45.4149389  71.9955635  34.0399671
  43.9638615  72.0479059  34.4673038  44.6322584  77.6649237   8.5969770
  43.8599014  77.6609421   9.1623783  44.2871952  77.8394032   7.7213526
  21.1298895  14.2354274  26.1495757  21.4952564  15.1179385  26.0870385
  20.6328893  14.1239774  25.3391433  11.4147651  15.2693820   9.8756140
  11.6314054  15.0493371  10.7816374  10.8893371  16.0667324   9.9418610
  66.0365200  11.1131263  56.5658092  65.5643845  10.3250706  56.2969494
  65.9139013  11.7251062  55.8400869   3.6457583  25.7742381  45.2908611
   4.3589506  25.6327653  45.9134150   3.7465528  26.6849947  45.0141001
   2.2748153  24.1963363   3.0305234   2.6142544  23.3606768   3.3509672
   1.5942939  23.9535165   2.4027017  78.8774395   6.2032598  38.9350104
  78.1295967   6.7770779  39.1014409  78.6337948   5.3695339  39.3372178
  63.0299330  78.9645910  39.5316219  63.3798456  78.0854797  39.6763897
  63.6546087  79.5455217  39.9658298  72.7105045   3.9787871   9.0559399
  71.7863417   3.7829003   9.2101502  72.9552078   3.4162337   8.3211714
  85.4465199  41.0325861  42.4429464  85.4903221  41.8980932  42.0364904
  84.9615383  40.4972887  41.8148661   0.9604967  24.4792080  35.4807281
   1.4031740  24.1442204  36.2605047   1.5666738  25.1266527  35.1207328
  78.1601334  36.6955256  58.6602688  77.5633287  37.2175217  58.1240034
  79.0254736  36.8614316  58.2862473  72.8326464  39.2401433  50.4148483
  73.1799078  40.0524807  50.7832909  72.9150772  39.3522167  49.4678164
   9.0918708  40.5159473   3.5983539   8.5209328  40.8464956   2.9048124
   9.9678546  40.5261087   3.2126331  79.4181156   7.9360068  46.7844868
  78.8075447   8.3775938  46.1942053  80.2741241   8.0475724  46.3709164
  75.7179642  42.8091240  27.8830266  75.3712320  43.1981659  28.6859322
  75.0690746  42.1499825  27.6366472  70.5028486  77.5742245  57.8079224
  71.4461899  77.7087402  57.8987360  70.4101324  76.6375542  57.6339006
   0.7870460  43.3744192  11.4450777   0.0610803  42.8790283  11.0658765
   1.5679964  42.8743315  11.2078857   9.4390613  40.9940815  40.0605011
  10.3031123  40.7049894  40.3538847   9.2516136  41.7671633  40.5928946
  81.9093323  37.6269841  42.2248888  82.7780151  37.3763657  42.5392437
  81.3060284  37.2639561  42.8733253  79.6702766   7.9757982  41.9680071
  79.1120720   7.7607697  41.2207413  80.3717613   8.5109293  41.5968132
  63.8939238  23.5433865  45.2723932  64.7544193  23.6553192  44.8683548
  63.3342314  23.2312894  44.5613575  69.1858864  34.6367240  21.7007875
  68.8963270  33.7877941  21.3665628  68.5738754  35.2658796  21.3188982
  22.7466893  19.5521164  49.6417570  23.0032873  20.4247880  49.3437099
  21.8245578  19.6425986  49.8820019  76.3929319  23.9080071  32.7029753
  75.4529333  24.0598631  32.6051331  76.4542055  23.1618309  33.2993793
   0.8039177  27.7428269  40.4578876   1.2429623  28.5415554  40.1654768
   1.5128344  27.1802211  40.7695675  83.5293102  38.7139177   4.4264925
  84.3795013  38.2741547   4.4230947  83.6653423  39.4940734   4.9641591
  42.2983599  79.6786690  12.9694164  41.6506481  80.1296902  13.5109687
  42.5565147  78.9172983  13.4889328  74.3802834  24.0720510  44.8754597
  73.5594654  24.3434262  44.4645500  74.1089916  23.5510492  45.6312275
   6.8572021  25.3319478  27.2565603   6.2962598  24.7476935  26.7464399
   7.3812467  24.7451568  27.8017998  66.0088062  79.7034502  28.2679129
  65.9928370  80.4571056  27.6780081  66.8952799  79.7006702  28.6290050
  19.3213832   7.4122691  43.6992788  19.7609580   7.9480231  43.0389977
  18.8277936   8.0399132  44.2271662  75.4425812  31.9117761  36.9517922
  75.0845146  32.5618625  37.5562835  75.3346539  31.0765791  37.4067950
  17.7299881  29.6393681  35.9334517  17.5020206  29.0271211  35.2338696
  18.6536407  29.4641924  36.1134863  71.7056084  16.0852134  26.4485812
  70.9338903  15.6201005  26.1255479  71.3918114  16.9704330  26.6333771
   5.4111755  65.0113297  19.6857655   5.7586527  64.2846251  20.2028656
   5.0927657  65.6373310  20.3361225  73.2330418  10.8675504  50.7583189
  73.9837217  11.2263191  51.2315941  73.3026171   9.9208254  50.8812141
  54.7682142  73.8079929  31.6056371  54.9112129  74.6721411  31.9916821
  54.5038176  73.2572460  32.3425269  17.6494396   7.9163098  12.8051865
  17.6270437   8.8714886  12.7471852  17.2715640   7.6172119  11.9781542
  16.1641848  42.9398537  16.0883987  16.1573076  42.0324659  15.7837152
  16.8976641  43.3429289  15.6238878   7.7097756  13.1913304  27.1420383
   6.9067407  13.4400535  27.5997543   7.4322844  13.0346870  26.2394357
  15.5335581  52.3640251  65.3464556  16.1825168  51.8536139  65.8307695
  16.0383534  52.8091908  64.6658373  74.4239283  20.0173712  26.5883756
  74.6557093  19.0992677  26.7283583  74.3315792  20.3782105  27.4701357
   0.6451143  30.0299144  52.0696259   1.4910328  29.9805021  51.6244125
   0.6217820  29.2517996  52.6266003  80.5288506  32.2760749  38.1968999
  80.6395435  31.9842124  37.2920275  79.6951103  32.7462983  38.1966043
  78.6961460  44.1345453  30.1226783  78.1711721  44.1953754  30.9207582
  78.3034086  44.7738838  29.5283437  11.4828265  30.0060415  34.6619916
  10.5871534  30.0992417  34.9865150  11.9569480  30.7396889  35.0534010
  48.6424255  30.6909084  13.1343806  48.8782024  29.8768377  12.6894855
  47.7728033  30.9052348  12.7966607  52.9338837  75.8794165  32.7739787
  51.9918108  75.9174776  32.6088142  53.1437778  76.7294741  33.1607342
  73.9364529  18.5255778  14.2672062  74.2536068  19.3959332  14.0261149
  73.4161091  18.6706674  15.0574124  73.0640745  48.1112862  59.8845196
  73.6728334  47.5273323  59.4321442  73.3155680  48.9889145  59.5968533
  53.8741064  65.0565052   8.0331463  53.7794638  64.5178366   8.8187122
  53.9250851  64.4257689   7.3149490   9.7602034  64.4629049  14.9670589
   9.5239496  64.3122101  14.0517962   9.3873376  65.3201914  15.1726389
  66.6386175   8.8792688   0.3647219  67.5772190   8.7208551   0.4655257
  66.3642406   9.2378759   1.2087300  47.2095442  71.3877964   3.3840406
  47.5765419  70.6143856   3.8122717  47.7804899  72.1060848   3.6566409
   6.5419167  13.5163438  24.6707678   6.0391927  14.3297672  24.6278334
   6.1986798  12.9844677  23.9527631  69.2694569  26.8741202  30.9166169
  69.9568415  27.0024967  30.2629685  68.8057470  27.7110505  30.9440875
  58.2907152  15.7993650  10.3305912  58.0154133  16.6829884  10.0863588
  58.7528419  15.9134269  11.1610496  58.8268185   8.5277575   7.6607400
  58.5457563   8.7650383   8.5444450  58.0286789   8.5759020   7.1345347
  82.7584553  24.2228413  64.7662210  82.7353573  25.1739311  64.8717165
  83.5837841  24.0521717  64.3124247  56.5241671   3.4250164  17.4474835
  56.3726616   4.1673130  18.0325258  55.8288240   2.8037703  17.6637769
   4.0508386  35.6690645  69.7503138   3.2924801  35.4353595  70.2855778
   3.8078207  36.4990544  69.3400812   5.7520193  41.7940521  57.6125383
   6.1967003  40.9666014  57.7964258   5.4535013  41.7094564  56.7070198
  41.4657068  50.4386425  12.4062324  41.9200611  49.7950172  12.9498708
  41.8025255  51.2838221  12.7036476  16.1414039  22.4659920  50.7899761
  16.3840878  21.6473484  50.3573561  16.9472778  22.7608037  51.2141085
   4.6500561  18.2388735  48.4078979   5.2226257  18.2142520  47.6412249
   4.4715726  17.3189604  48.6031771  42.5055695   2.3419555   4.4494110
  42.3490810   1.6040233   5.0386471  43.0266571   2.9556060   4.9672267
  61.6966915  73.3263540  12.8520322  61.7865038  73.7541389  12.0004654
  62.2675991  72.5600529  12.7965152  20.6090975  47.8446484  65.1745939
  19.9878895  47.4554491  64.5590830  21.2728548  48.2531166  64.6188879
  10.0301981  53.2120562  67.8080893   9.4279987  53.7808514  67.3284435
   9.5111114  52.4353695  68.0167389  80.8200645  48.3364630  61.1025667
  81.0432911  47.5707054  61.6317320  81.3154602  49.0536261  61.4981508
  31.3285279  74.4722557  18.7899256  30.9359264  74.5602274  19.6584630
  30.5877161  74.5233583  18.1859219   6.3008797  28.7471700  61.0644579
   6.0834146  27.8552055  61.3352728   7.0856923  28.9654684  61.5670967
  38.4481573  55.7718849  19.5123625  39.3368983  55.6554651  19.1764772
  37.9068112  55.2108812  18.9569795  71.0973406   7.2468126  34.6469617
  71.1728621   6.6709501  33.8860989  70.9202480   6.6553020  35.3783894
  60.6709576  19.2098892  10.9238994  61.5636587  19.4093204  11.2059355
  60.1418161  19.3097126  11.7152762  56.5230083  68.2687807  31.2343097
  56.4207745  67.9593563  30.3342915  57.4028444  68.6449146  31.2597847
  32.2928643  66.4960146  13.3634377  32.8489733  66.5191650  14.1421795
  32.0017695  67.4007988  13.2500184  27.4916983  46.9309664  63.8903618
  27.9446244  46.0905600  63.9596462  27.4182081  47.2386360  64.7937822
  57.4225187  26.1569762  60.9918785  58.0911207  26.8186998  60.8148861
  56.6782522  26.6535163  61.3320923  76.4129925  36.3646412  67.9525471
  76.6079426  35.4296780  67.8887463  77.2626543  36.7938638  67.8522015
  47.4319553  77.8358984   7.6168811  46.7053366  77.6252699   8.2033068
  47.0804405  77.6911783   6.7384034  64.7031593  26.4584470  10.6798339
  64.4020462  25.9091187  11.4035738  65.1995420  25.8633876  10.1179254
  43.6079025  56.7317581   5.8343244  43.0911398  56.7691135   5.0294715
  43.5627556  57.6195288   6.1893648  22.7656317  74.7671366   1.0809299
  22.9626775  74.0257359   1.6534065  21.9896960  75.1705790   1.4700201
   4.8123220  45.8602381  61.1240959   4.8253846  45.4835272  60.2442408
   5.5461478  45.4421425  61.5745687  44.0054274  70.6424618  18.6627436
  44.1167593  71.2706184  19.3763649  43.9511061  71.1826849  17.8744292
   1.3487183  21.5652871  68.9399433   1.5173888  21.9283867  69.8093891
   1.6808742  20.6687593  68.9862251  82.8530025  38.9555430  47.3996973
  82.0139313  38.7806988  47.8258514  83.5065842  38.7804818  48.0767584
  50.1032019  19.2291856   8.8235652  50.8263254  19.7712648   9.1389620
  50.5195713  18.4144735   8.5422993  65.4288006  36.6546750  69.1083097
  66.2721586  37.0518756  69.3255949  64.9536371  36.6319919  69.9389315
  38.3430672  81.1365986   0.5856775  38.0065274  80.2457142   0.4892616
  37.7950168  81.6638756   0.0044288  31.7122173  78.7485075  24.0392256
  30.7676864  78.6818695  24.1794109  32.0916486  78.1356049  24.6690011
  65.8181095  25.3689241   4.4530696  65.6583977  26.1299562   3.8948977
  64.9480343  25.1037145   4.7511694  13.0811405  32.5075722  66.1270618
  12.6360774  32.0480156  65.4150534  12.3880553  32.6985025  66.7590523
  32.9921460  68.6659098  19.3348491  33.4244585  68.2618713  18.5824573
  32.9973888  69.6029234  19.1393912  39.9052525  70.9203720  52.0427752
  39.1571689  71.3084984  51.5889454  40.2089691  71.6079855  52.6353741
  56.0083580  19.4243431  27.5165367  55.5251932  19.8316658  26.7975974
  55.5729103  18.5826242  27.6511812  52.1960258  14.9056160   1.1371680
  51.6992235  14.9021125   0.3189964  52.9397154  14.3271410   0.9682778
  74.0025520  11.1877418  17.6996851  73.2446527  11.5081942  18.1886971
  73.6534405  10.9626091  16.8373227  12.9045355  52.4304008  64.4687843
  12.7693796  53.0282450  63.7335634  13.8522577  52.4263382  64.6030855
  23.0347586  30.3289604  26.8685031  23.1032038  29.4421387  27.2221899
  23.9092588  30.5196571  26.5292144  77.5605536   2.7165580  23.0431890
  77.5656462   1.8029338  22.7577138  77.9011679   3.2038048  22.2929859
  45.4753733  73.7692499   2.9347780  46.3955402  73.5407686   2.8031671
  45.4752684  74.7225523   3.0210438  10.0190461   9.0001559  15.6163716
   9.8603863   9.2205781  14.6985090  10.9547746   9.1576529  15.7422233
  81.4792538  24.9509907  14.4176233  81.4440250  24.8623848  15.3700614
  81.9347954  24.1633248  14.1204822  84.3802643  54.2242336  65.0750303
  84.8571777  53.9753866  64.2832851  84.7604275  55.0651026  65.3292990
   2.1665831  39.8355293  61.5855217   3.0838308  39.9625134  61.8279314
   2.1588138  39.9081826  60.6311131  85.3404808  21.3616681  31.0928822
  85.3572083  20.4069829  31.1601591  85.9264946  21.6610646  31.7879915
  17.0556736  50.8288145  67.0352077  16.6046429  50.9359169  67.8726625
  17.7222979  50.1633644  67.2055769  59.9762726   8.8185304   3.2335427
  60.2866459   7.9309726   3.0542603  60.4390574   9.0777183   4.0303400
  42.9574108  67.5686026  67.3846245  43.0104637  66.8522167  68.0172491
  43.0921936  67.1484804  66.5351772   4.9594364  63.6973572  67.9520464
   5.3131366  64.1114616  67.1648693   5.2997297  64.2256355  68.6740971
   0.8585034  19.1824198   2.6340282   1.3395807  18.4169197   2.9483622
   0.2163557  18.8262272   2.0200206   6.0961074  38.6826968  68.6543751
   6.3174200  38.8906908  69.5621157   5.1410401  38.6190414  68.6492491
  60.2630281  24.6364784   7.6460940  60.0697708  25.2245879   6.9160175
  60.7476854  23.9128780   7.2489291  22.5129580  45.7147694  64.7452116
  21.8409538  46.3431835  65.0092793  23.2136583  45.8294964  65.3871536
  76.3068151   1.0469913  10.4696095  75.9899521   0.2116908  10.1259470
  75.5210924   1.4848192  10.7969904  63.4350777   9.8089582  20.1829672
  64.2746449   9.4573331  19.8867893  63.3138275   9.4359726  21.0561299
   2.8572163  39.2080903  65.8824301   3.2320216  40.0014544  66.2649536
   3.4361410  38.9990711  65.1493597  72.8154039  23.5472083  19.7802699
  71.9338322  23.8567710  19.9881971  72.9309034  22.7691627  20.3257394
  41.9663572  31.6490173   4.1984791  41.4399338  31.9799709   3.4707576
  42.2895622  30.8010197   3.8940617  25.7128191  46.4640379  69.0712214
  26.1899447  47.0758629  69.6318102  26.2687278  46.3638449  68.2984638
  74.6853161  61.1216116  49.8041821  75.2164555  61.7395592  49.3019199
  73.7821865  61.3915873  49.6377468  12.1052563   3.3390000  13.1281972
  12.2737312   2.4029943  13.0198371  11.9352412   3.4449741  14.0641975
  69.6057129  27.2329116  13.5688293  69.0759277  27.4203658  12.7939618
  70.3452253  26.7243648  13.2360601  70.0413370  32.0235443  68.4249258
  70.2629519  32.8768945  68.7976313  69.0852165  31.9898629  68.4554386
  69.1913128  71.8478823  36.6878390  69.5926476  72.7154255  36.6375661
  69.9321318  71.2438297  36.7382765  81.3823223  54.8124075  66.9370127
  81.0234356  55.6929541  66.8271542  82.2556973  54.9535942  67.3024035
  54.7247458  26.3747215  13.8572395  55.3280640  25.6587934  14.0564430
  55.0795126  26.7727304  13.0622816  80.1088905  25.4094386   2.0596676
  79.7411060  26.2126994   2.4280949  80.9027576  25.6949210   1.6074552
  77.8241825   6.8718892  11.3599312  77.1592999   6.5194541  11.9515038
  77.3279667   7.3757833  10.7148790  74.7105074  17.9246461  28.5826063
  74.1263723  17.1930432  28.7820435  75.3008795  17.9716396  29.3345976
  13.2660294  69.9843740  49.2223787  12.7524364  70.7224751  49.5504951
  13.3316982  70.1384115  48.2799387  11.4562893  78.0540085   3.1147796
  11.4244127  78.8409424   2.5707719  12.1860158  77.5465918   2.7594465
  62.9839849  25.1951838  12.2498751  63.1714725  24.3436837  11.8548739
  62.8754044  25.0079823  13.1822908  69.3018150  39.3445992  14.1889167
  70.1173210  39.2350292  13.6998618  68.6197281  39.3572187  13.5174799
  77.1354437  41.7923069  68.5427570  76.2118864  41.8031788  68.7940645
  77.1449947  42.1389627  67.6505852  24.0437579  50.2271748  57.5192928
  24.8382783  50.6380653  57.1784925  23.6172748  49.8540401  56.7478514
  73.7536335   2.5569150   0.7491926  74.5317793   2.0518765   0.5132777
  73.4815216   2.9735518  -0.0684863  71.4008263  14.1210205   0.2239949
  71.3329820  13.1998855   0.4752690  70.9071115  14.1832144  -0.5936902
  29.4998336  64.7855091  59.0032768  29.2191601  65.6997299  59.0439606
  28.7107158  64.3034792  58.7559509  79.9120522  47.7426147  14.6615946
  80.5408192  47.0219612  14.7007692  79.9709892  48.1589127  15.5215108
  11.5328693  20.9677911  15.9351456  12.2699142  21.2572336  15.3973556
  11.9264543  20.3926969  16.5913379  68.5570240  19.7156990   9.7027081
  69.4795942  19.7854590   9.4572800  68.5566282  19.1493058  10.4743493
  59.8684263  27.4816656  26.5986300  60.5640745  26.8357038  26.7212701
  59.8664999  27.6558089  25.6574059   6.1220336  56.6879988  57.9045391
   6.8033850  57.1658182  58.3774900   5.8506924  57.2851562  57.2073984
  73.9353228   3.0792743   6.2339580  73.7860823   3.9274320   5.8161199
  73.7252617   2.4377036   5.5553603   0.5546579   8.2644302  44.9498367
  -0.2254166   7.7432734  44.7598124   0.2863952   8.8467014  45.6606340
  58.9951372  21.7625976  16.7513680  59.7514296  21.2265897  16.5127265
  58.2413769  21.1899042  16.6095853  53.1950760   5.5108958   8.4313118
  52.5846815   4.7844639   8.5575944  52.7152395   6.2821633   8.7331992
  81.0052681   5.3635228  26.1805868  81.7859936   5.0159323  26.6117239
  80.8286858   4.7460687  25.4708004   3.4601137  57.9580450  58.3181572
   4.3168917  57.5427008  58.4164000   3.2878485  57.9320431  57.3769474
  21.0798550   4.9635753  12.3768508  20.9585381   5.1136881  13.3143902
  20.3038049   4.4703969  12.1108592  69.4489384  23.3898044   7.4834996
  69.5906305  22.6233053   6.9279504  68.7701511  23.1162572   8.1004673
  74.8464918  38.3613324  63.7577772  75.6784105  37.9176879  63.9230728
  74.1818237  37.7498794  64.0749073  81.9647789  21.7477393  17.9214847
  81.0767269  21.4496303  17.7246952  81.8429565  22.4839544  18.5209680
  74.6188927  18.8452244   0.6788056  74.7347879  18.7816632   1.6268352
  75.5097246  18.8823485   0.3305628  31.0335612  24.9098206  69.1288328
  30.4707932  25.5241013  69.6001959  31.9240069  25.1934361  69.3359613
  44.0405083  11.4956760  34.0758801  43.2874823  11.3942361  33.4937358
  44.7738838  11.6798329  33.4889579  67.1149015  27.2822261  28.0438280
  67.3428106  26.3569188  27.9538417  66.3044071  27.3789859  27.5438619
  54.6978426   2.7709687   3.6369076  53.8636684   2.8565842   4.0984869
  55.0786066   1.9618835   3.9784196  69.7403002  22.7184534  30.8921862
  70.0717402  22.1168447  31.5588546  70.3529453  23.4537554  30.9072590
  75.5962753   6.3730049  47.0387411  75.8648252   6.1369479  46.1508274
  74.6764278   6.6232401  46.9522095  23.4956956  72.7603245  43.6347532
  24.0043116  73.4604883  43.2257128  23.7140298  72.8177071  44.5649529
  53.2043505   4.7471413   0.7385254  52.4603176   4.5283899   1.2995917
  53.5188293   5.5865729   1.0742202  60.1340342  20.1616335   2.1174105
  60.7532215  19.4595718   2.3172881  60.4676199  20.9192300   2.5980327
  79.3182945  27.9965782  61.5855694  78.7140512  28.6027575  61.1570024
  79.1240311  27.1461487  61.1915350  76.8261528   7.4277401  32.5446892
  77.0825005   7.1611500  31.6618276  77.5616121   7.1638733  33.0975938
  55.4283285   5.2295864  25.8387017  56.1176157   5.8909565  25.7778239
  55.1104069   5.1316679  24.9411654  85.6431961  52.7560282  68.3695936
  85.5231857  52.4009657  69.2503691  85.5943871  51.9922209  67.7947474
   9.9634147  53.8999987  57.5184298   9.3347865  53.4706688  58.0987215
  10.1497030  53.2480335  56.8427992  43.2549334  68.5659742  24.6476030
  42.3516941  68.8655806  24.7507048  43.1744051  67.6529264  24.3717432
  34.6239448  79.6892786  17.0004022  35.2645993  79.4047499  17.6521981
  34.9647927  80.5235386  16.6778255  70.6301117  13.4880495  11.5167987
  69.9572945  13.3948576  10.8423615  71.3960934  13.8178933  11.0470068
  18.1153417  65.1373148  65.9783220  18.3846486  64.4230366  65.4008150
  17.7429414  65.7938290  65.3896475  24.5566988  74.9142838  61.6917944
  25.3253603  75.4574728  61.8659735  23.8121819  75.4923630  61.8583679
  50.7231998  62.4405527   8.3938020  50.6816387  61.5575600   8.7609839
  50.2485704  62.9840660   9.0227324  15.0976050   8.3546978   4.1588610
  15.5175769   9.1787672   4.4053671  14.2582428   8.6172783   3.7810317
  81.8639851  14.9065948   7.4644411  82.3545647  14.9914479   8.2819730
  81.9499874  15.7620108   7.0436132  24.9177456  77.4489927  14.9946129
  25.0417519  76.5064335  14.8831141  25.5262661  77.6896477  15.6931984
  40.5112123  21.2785697  22.4577069  40.6784296  21.8943501  21.7442036
  40.1907253  20.4887080  22.0222330  79.0641165  40.9775448  24.2137241
  79.7723389  41.2466574  24.7987318  78.2636881  41.2198305  24.6793890
  75.1951265   6.1572564   9.1053140  75.5569029   6.0467410   8.2260329
  74.3779039   5.6590497   9.0924257   2.2166812   8.6878055   9.4152474
   1.5712026   8.0059159   9.6013016   1.8080404   9.2258292   8.7371808
  23.3496356  70.8755684  68.7555504  23.2579827  71.8238115  68.8486242
  22.7765203  70.5121374  69.4305992  63.0210447  13.4811652  32.1957231
  63.3238077  14.3514001  32.4550605  63.3504486  12.8990555  32.8804660
  13.2562935  15.8613431  16.1817122  13.2656622  15.1223159  15.5734503
  12.4962437  15.7014620  16.7411709  76.8041801  57.6095247  41.5576506
  77.6153088  57.5983906  41.0495377  77.0457697  57.2306395  42.4028206
  82.7204609  14.8162043  21.8111205  82.6223469  13.8677430  21.7273021
  81.9328976  15.1754975  21.4025998  80.3866959  48.7689114  69.0863848
  80.1411915  48.5938501  69.9948502  79.7512865  48.2759142  68.5673094
   7.7819806  53.1291151  59.1655111   6.9456398  53.3388567  58.7498474
   7.7513719  52.1820116  59.3007469  57.5523281  77.6029110  13.8158047
  57.6738453  77.8188515  12.8912318  58.3853102  77.2139406  14.0824032
  18.7223661  75.5846214  65.2205849  18.1337667  76.0574865  64.6322155
  19.5525312  75.5425549  64.7459412   5.1072538  25.5786252   2.8263581
   5.0307387  26.5293956   2.7462849   4.6438411  25.3684807   3.6371109
   2.2734800  12.3860991  13.7946594   1.8785731  11.7240655  14.3621027
   3.1282389  12.5602818  14.1887152  28.1832623  15.1957119  25.8196831
  28.5057569  15.2337694  24.9192476  28.2405066  14.2698240  26.0556626
  32.6787448  77.2138023  63.6809254  31.7397475  77.3957682  63.6434603
  33.0475044  77.7057409  62.9472733  77.3938322  19.4077599  14.2921019
  77.7572012  18.8624680  14.9898481  76.8823767  20.0742865  14.7507787
  68.5176754  28.2977390  33.6746955  68.0396557  28.8505960  34.2928195
  68.2851982  28.6449122  32.8134990   3.6846042  48.9619493  61.3736200
   4.3553427  49.5317698  60.9972620   4.0662634  48.6530638  62.1953011
  84.2892265  41.0701227  39.9999857  85.0419998  41.6605616  39.9693322
  83.7481976  41.3329506  39.2553782  37.0820332  68.2404757  64.3004656
  37.2247434  67.9094124  65.1871824  37.7444482  68.9225483  64.1899633
   3.5495508  16.0950637  45.6863070   3.1860507  16.0365558  44.8027515
   3.2049325  16.9180036  46.0330677  15.0116444  48.5064554  68.9817619
  14.4283903  48.5548401  68.2243299  14.4948387  48.0623960  69.6540356
  54.7324705   9.4577372   3.4474918  54.7272873   9.5372528   4.4013697
  55.6593370   9.4845909   3.2099441   8.8397086  29.5942879  48.0197954
   8.1868702  29.1196299  47.5052738   9.3554533  28.9083624  48.4437656
  21.5252614  56.1544085  47.3329306  20.6834888  56.5621758  47.1295214
  21.3131285  55.4718494  47.9695940  44.6429682   7.3935318  25.6268954
  44.5102739   7.0296597  24.7515535  45.4006863   7.9709822  25.5339003
  69.3783760   7.4207568  26.4346385  69.5517063   6.4808732  26.4876127
  69.8618698   7.7102375  25.6609035  69.4172001   2.3089610  16.8935072
  68.9984989   1.4926174  17.1664619  69.6258831   2.7568743  17.7132976
  51.5927839  75.6805992  22.1475554  51.6155672  75.3918076  21.2352443
  52.2778893  76.3465929  22.2051430   2.7011821  17.3315561  13.6377037
   2.0344529  17.3339653  14.3245065   2.9662523  18.2478619  13.5580027
  13.7548661  46.8036175  59.4447756  13.2735062  46.0146046  59.1958046
  13.7026179  46.8245411  60.4003191  11.2580371  13.0023229  23.9423823
  10.5874336  12.6511037  23.3565784  11.5385616  12.2500885  24.4636130
   5.9808868   4.8663318  23.9681315   5.8562803   4.7117475  23.0317521
   5.1321107   5.1870936  24.2729640  84.7986507   4.0567628   8.7151545
  84.6986198   3.7814474   9.6264327  85.2048683   3.3063504   8.2814473
  42.0077610  17.2686088  11.1831939  42.2284985  17.8387916  10.4467165
  42.8494453  16.9198763  11.4767671  78.6555958  23.1965947   2.1070163
  79.3237734  23.8811421   2.1411520  78.8815594  22.6796865   1.3337252
  79.1517067  23.8483310  16.8252254  80.0233746  24.1816974  17.0380473
  79.3165207  23.0519629  16.3203812  10.5296087  16.2932217  19.8385775
  10.7980001  17.0003462  20.4252386  10.2043426  16.7405915  19.0573645
   9.4735199   1.0506354   8.4126592   8.9883435   0.6687800   7.6812065
   8.8708168   1.6902594   8.7919509  25.9251595  34.8994970  66.3759804
  25.7274628  34.7269821  65.4554415  25.1012373  34.7317529  66.8334150
  78.1289434  12.0301783  13.5467386  77.9987955  11.0819781  13.5611725
  77.2619009  12.3937082  13.7265015  58.1301308   4.2547780  65.9195375
  58.7454700   4.9120826  66.2444067  57.9368830   3.7098610  66.6824007
  23.5286808   5.1592547  21.0848045  24.2126060   4.9365669  20.4532290
  23.0775428   4.3315759  21.2511039  44.7292662  67.8031683   1.7737244
  45.6000328  67.8937340   1.3866971  44.6942663  68.4831715   2.4464792
   6.8311042  59.2974949  46.2052298   6.9901043  58.7399101  46.9668388
   7.3738420  58.9188147  45.5136585  75.4817009  12.9275417   0.0016118
  76.0079479  12.6420605   0.7484704  75.7079077  13.8506782  -0.1118814
  18.3859944   7.6350981   6.3454866  18.1014538   8.4617758   5.9557784
  19.1320360   7.3626906   5.8112121   7.5726861   6.6337752   3.2343444
   7.0071185   6.1337960   2.6457995   7.9473650   7.3193991   2.6813814
  16.5530586  36.5134859  66.9089508  16.7980146  36.3199258  66.0040951
  17.2482729  37.0892739  67.2273540  59.6893930  16.7307854   1.5389185
  60.4269123  17.3403192   1.5666245  59.0259981  17.1318257   2.1004400
  31.0794234  70.9306526   3.7679559  31.6894698  71.3666630   4.3629113
  31.6334128  70.5842638   3.0684257  48.4964132  47.2306919   1.6464515
  49.2937899  47.0514297   2.1447331  47.7860928  47.0902109   2.2725043
  65.5452633  22.7106953  13.3758140  66.3862514  22.3247480  13.1308270
  64.9827862  21.9594622  13.5642338  10.8738494  13.3226621  41.6594219
  10.5814636  13.8504136  40.9163094  10.2662849  13.5449862  42.3648787
  76.0091877  35.3587174  17.0070517  75.7507467  36.2788343  17.0602059
  76.9327068  35.3544092  17.2587097  37.4735475  76.0210896  51.8046665
  38.0887461  75.9755468  52.5365734  36.6983962  76.4479876  52.1695328
  74.8891258  40.0271559  10.0062191  74.5956135  40.8230448   9.5627785
  74.6179485  39.3158054   9.4259787   7.7649397  48.6286592  34.3712831
   7.8863537  49.5776987  34.3998623   7.1631622  48.4860754  33.6406898
   4.8432425  42.1364784  35.0636673   5.2602500  41.4253569  35.5501294
   5.5594301  42.5479269  34.5799160  85.1936054  21.3976598  14.3031824
  86.1349583  21.5132666  14.1738951  85.0417423  20.4670286  14.1385782
  18.7539649  48.3519888  57.5735283  19.2330730  48.4275389  56.7483139
  19.4358051  48.2556486  58.2383919  23.3510017   7.8110766  20.7658696
  23.4269118   6.8733662  20.9424162  24.2087555   8.0602109  20.4217410
  86.0374355  41.8010187  15.2954781  85.6614208  42.4674463  14.7204030
  85.6954956  40.9730339  14.9582136   3.9085338  19.0322649  23.3390951
   3.2835472  19.7572601  23.3414507   4.4044125  19.1461492  22.5283146
  19.5481610  14.2622375  23.9992595  19.4487417  14.1696274  23.0517507
  18.9454341  13.6162674  24.3675995  34.6344852  74.5275927  60.0947237
  34.9293208  74.9442482  59.2849684  34.6263433  73.5918379  59.8933935
  78.3992815  25.8290100  24.3901396  79.2109966  25.9024048  23.8881779
  78.1568813  24.9056792  24.3198824  74.0552711  22.6274586  47.3635626
  74.4132423  23.3815145  47.8320551  73.2828474  22.3756456  47.8697109
   8.6980873  26.7722297  25.8301020   7.9458797  26.4125848  26.3002849
   8.8010955  26.2000871  25.0696588  22.1785402  71.6422987  57.7100039
  22.8934526  72.1977711  57.3992252  22.5954795  70.8037376  57.9080153
  75.5154848  12.6916897  13.7141883  75.3648758  13.0280650  12.8307855
  74.7657204  13.0042434  14.2205441  14.6001184  17.6658618  19.2190194
  14.5186663  17.0915306  19.9804270  15.2746606  18.2981110  19.4669843
  74.4098568  28.9630556   5.0138104  73.7961054  28.5568547   4.4018084
  75.2679920  28.6341262   4.7461525  17.9332626  76.7908955  59.6587658
  17.4837399  77.1825600  60.4076052  17.5474370  77.2213888  58.8958454
  23.3803964  54.4556284  65.7915258  23.5147429  53.5234737  65.6204367
  22.8180122  54.7518826  65.0758553  24.0112114  58.0539751  69.1769409
  24.4858909  58.1234837  68.3486414  23.3480239  57.3824596  69.0173149
  13.9220655  62.4760437  69.3967628  13.6818981  62.4549961  70.3231049
  13.5015810  61.7017889  69.0226650  59.5931864  29.9977541  29.9162626
  59.1550922  30.3984809  30.6670809  60.0048351  29.2100024  30.2715445
  69.6939754  36.0552597  13.7007821  69.0602446  35.4344726  13.3412850
  70.2126360  36.3324523  12.9455411  19.2563629  53.6821747  51.7278004
  18.4288025  53.2254314  51.8786764  19.8693967  53.2757282  52.3403549
  17.1089697  13.9410210  11.2580299  16.7254138  13.3828425  10.5816019
  16.3914585  14.1022944  11.8707287  22.1506786  25.1096725  14.5375466
  21.4022493  25.3818941  14.0065289  21.8665814  24.2949986  14.9520671
  58.2697248  28.3402491  15.1071668  58.7050724  29.1067076  14.7340107
  57.8337860  28.6710858  15.8924937  82.2016048  22.4040294  10.6997478
  81.4210320  21.8508124  10.6699014  81.9867706  23.1516576  10.1419580
  22.6599169  21.2824368  11.1942649  23.0498219  20.7418323  10.5072773
  21.7810822  21.4823294  10.8718932  37.9471660  59.4944572  43.8330746
  37.2786617  60.0480747  44.2366123  38.5872459  60.1116180  43.4786224
  64.5884466  19.5730150   7.8534544  64.2695856  19.3593502   6.9765824
  64.6298075  20.5292273   7.8668696   9.5393342  26.6005564   1.7896301
   8.5997581  26.4288998   1.7266797   9.9313128  25.7387948   1.9308861
  15.5885327  12.5438285  24.2251229  15.0760067  13.3315194  24.0432119
  14.9403834  11.8935645  24.4958448  65.3143692  11.1706269   5.1666719
  65.5162382  11.0837495   6.0983008  64.3953419  10.9126019   5.0956619
  24.1538954  78.2743549  63.9018679  24.5465636  78.9326096  63.3285046
  23.2234073  78.4980679  63.9213037  69.3766117   0.8609334   4.6546042
  70.0627279   0.4678264   5.1939934  68.9334249   1.4745483   5.2405161
  21.1886525  34.4679165  30.5094218  21.0282516  33.8266182  29.8171520
  22.1028328  34.7254086  30.3902411  62.9374647   2.8101882  12.6636875
  62.8794956   1.8585549  12.5784492  63.5526037   3.0748904  11.9797492
  71.4371920  13.6772430  23.9487529  70.6999445  13.8474405  24.5350409
  71.9957590  13.0715299  24.4359374  16.8767703  30.0729847  14.6954370
  17.0050085  30.6044269  15.4811561  15.9533453  30.1924801  14.4735420
  15.2014339  37.5843716  11.5820467  15.7841766  38.2234263  11.1718595
  15.1239443  36.8819070  10.9364688  76.7016268  40.1118135  29.9413276
  76.6764736  39.4761276  29.2261362  77.1953583  40.8514166  29.5871377
  64.4529486  21.5475702   4.1514891  64.4257641  22.4053001   4.5755112
  64.7900772  21.7250657   3.2733822  34.8007989  69.7062731  50.6234407
  34.4887543  68.9805269  51.1639547  35.4939055  70.1120186  51.1442137
  56.0280085   0.9811103  55.3018379  56.0035133   0.4186825  56.0759830
  55.6668758   0.4390279  54.6004343  81.7476845  22.7286434  37.4651480
  82.6470947  22.8572464  37.1638823  81.5230274  21.8436956  37.1776938
  61.3129568   2.3342563  60.8926535  60.7446766   2.3218593  60.1224995
  60.7521200   2.0365958  61.6089582  19.9808979  57.0363712   4.7655261
  20.2223849  57.0934200   3.8410467  19.0609837  57.2998381   4.7894785
  62.9206419  30.7261825   7.5091147  62.0434093  30.7189965   7.8920478
  63.1895447  29.8075294   7.5091863  63.5316992   8.8086659  22.7697015
  62.9491520   9.2159420  23.4107900  63.1770802   7.9277432  22.6494908
  70.3825188  44.1496897   2.8550908  70.3329945  43.6606169   3.6764234
  69.9862576  43.5684538   2.2059599  84.0863895  19.5364916  20.2997780
  84.2788696  18.8275254  20.9134150  83.9429760  19.0959501  19.4621694
  12.4302673  34.7691536  20.8532667  12.1690333  35.5430555  20.3542042
  13.1378531  35.0770020  21.4196444  13.8075209  22.9405141   1.6012214
  13.8773727  23.8338470   1.2646112  14.0361810  23.0151010   2.5277111
  64.7439432  13.0643439  47.1806669  64.6564960  12.4649882  46.4394808
  65.4923820  12.7280712  47.6736069  62.9660988  13.3693254  14.4000220
  62.8879261  12.6356757  15.0098395  62.7772951  12.9889047  13.5421968
  12.0363593  24.3263340  11.6903257  12.8935993  24.1464448  12.0763445
  12.2017860  24.3679643  10.7484484  83.0328274  36.8215799  13.4346008
  82.9616642  36.0635543  12.8544569  82.2327518  37.3219442  13.2741249
  25.7157203  74.7247856  70.4609439  24.9104758  75.2411121  70.4960285
  25.8772250  74.5961517  69.5262778  77.9407978  33.9359307  22.7587366
  77.2701645  34.4343567  23.2257056  78.6732531  33.8860369  23.3729458
  20.3667951  73.9354658  61.6643476  20.5343509  74.4698763  62.4405956
  20.4174709  74.5518112  60.9337425  26.5933418  80.4307938  17.3435223
  26.7095876  80.8914852  16.5125704  25.7067943  80.6598949  17.6224160
  76.4205551  18.4463930  30.5471873  75.6560707  18.1790018  31.0573840
  76.5636206  19.3607843  30.7914281  26.5410495  69.2554379  65.0929070
  26.5951896  68.5259104  64.4755840  25.6060767  69.3436432  65.2780533
  69.0540743  26.9226336  19.8340034  68.8888741  27.5086045  20.5726361
  69.1437674  27.5062871  19.0806544  48.8187504  27.1224761   9.3784434
  49.4183779  26.5605736   9.8693067  49.3887615  27.7477789   8.9308780
  84.3036938   2.9525673  31.0753536  84.0260983   2.0584771  31.2747884
  84.4948292   3.3401576  31.9294453   0.8317379   8.0525655  23.4798741
   0.2218416   8.3335626  24.1620016   0.4815599   7.2152984  23.1755853
  75.8553457  17.3874223  12.8537273  76.5404463  18.0510652  12.9340196
  75.1387739  17.7160168  13.3966649  14.6730828  45.0539827  16.6394556
  14.5628011  45.3579950  15.7385409  15.1488197  44.2275000  16.5567994
   7.4688387  41.0363579  16.1029196   7.4104744  40.1437712  15.7621658
   7.4285054  40.9328938  17.0536566  15.7222199  54.8584032   8.5426390
  16.4878321  55.4258633   8.6323971  15.7856452  54.2520952   9.2806083
   8.0983114  48.9050055  53.4480238   7.9561043  49.5023680  52.7137423
   8.9525729  49.1562700  53.7992144  86.1372757  55.1462173  15.4695940
  85.6849957  54.7115755  16.1926115  85.7472038  54.7683859  14.6813583
  20.2845740  21.6510844  25.5083799  20.4086661  20.8941317  26.0809660
  19.4211793  21.5167832  25.1175547  65.5423450  14.2131174  15.7598174
  66.1152792  13.4983099  15.4822671  64.7144842  14.0450954  15.3096545
  35.6905437  54.0525579  61.0535669  35.5112624  54.9370718  61.3724995
  35.9633565  54.1764593  60.1444721  77.7164984  20.4767561  23.4350967
  78.2608128  20.3859639  22.6529789  78.2048893  20.0214791  24.1209745
  69.9833202  20.1173615  13.8989711  69.7125006  20.1990008  14.8134243
  69.7606659  19.2168951  13.6627138   4.9703449  11.2601006  13.7224436
   5.4441649  10.4478943  13.9014590   4.0604979  10.9861255  13.6069119
  82.7577209  34.3148494  49.9811029  82.2648239  33.5075617  49.8342419
  83.5808945  34.0247393  50.3741026  11.2704706  66.1819983  50.7529926
  11.0033488  65.2687073  50.8568192  11.0620880  66.3904428  49.8423004
  78.8010263  28.7429881   5.7598162  78.1018400  28.3786798   6.3026375
  79.5075274  28.9350867   6.3764048  10.9740174  23.6689782   2.5907212
  11.7895281  23.4201288   2.1556948  10.3060818  23.1204438   2.1793786
  68.3210516  15.5482101  16.6265750  67.6754427  14.8981881  16.9038606
  68.1965065  16.2815821  17.2289741   3.5780621  64.6495152  56.3701677
   2.6368189  64.7806406  56.2557173   3.6544061  64.1682196  57.1940374
  30.7149911  55.5982113  32.9154611  30.9072566  55.8388853  32.0091820
  31.4865875  55.1098251  33.2024288  12.2021961  57.8428364  70.3033018
  11.7313707  57.0172024  70.4168129  13.0112803  57.5974274  69.8545361
  79.3408489  19.8421884  25.4978967  80.1811314  19.7482550  25.0491905
  79.1531515  18.9682484  25.8402848  25.7621980  69.6340942  68.8993311
  25.9674788  69.9756050  69.7696543  25.0469756  70.1883602  68.5871172
   7.9035604  33.7101316  30.5959439   8.7322527  33.7162733  30.1169205
   7.9166466  32.8883862  31.0866499  62.4209213   3.7196451   1.4311919
  61.9415426   2.9033378   1.2895238  63.3337116   3.4478396   1.5269484
  31.5719318  51.5528536   8.3525079  32.4389696  51.7518044   8.7059188
  31.5432811  52.0142603   7.5143456  29.8450017  67.3476267  66.0209703
  29.2421961  67.8432417  66.5752506  30.6571412  67.3079872  66.5260363
   3.3118418   4.6797842  34.6092939   3.6242163   5.5144489  34.2600250
   4.0750116   4.1033208  34.5706487  27.9654312  80.1576233  67.8816414
  28.6429262  80.3438187  68.5316896  27.9429507  79.2023039  67.8260136
  50.5698109   1.0255298  63.2246065  50.3857231   0.1545396  62.8728724
  50.1008844   1.0510293  64.0586853  85.6308270   7.2572196  33.5646009
  85.3874016   7.8954250  34.2351747  85.6328297   6.4169860  34.0231156
  76.4409065  12.3726273   6.3959885  76.7229033  12.8290737   5.6032926
  76.6107607  12.9943931   7.1036524  73.4925556  15.6431603   0.9284110
  73.3595610  16.4436507   0.4207129  72.7488136  15.0866568   0.6973699
  44.8274660  76.9356537  66.9905758  45.1295900  77.3179436  66.1666775
  45.6174326  76.5703964  67.3890400  79.3144512  31.7855573  12.0268607
  79.2260695  32.4261904  11.3211608  80.2428913  31.8107939  12.2583663
  69.8602772  11.5741432  17.2270024  70.6759739  11.9330847  17.5763261
  69.5218277  12.2621763  16.6540289  82.9306412  39.2860961  30.3572917
  82.1435356  39.8247433  30.2762723  82.9459000  38.7622881  29.5562768
  65.2093029  38.4084630  14.5150924  65.3895140  37.6338863  13.9823771
  64.3252182  38.2661605  14.8532879  37.5779104  73.1644869  53.1410503
  38.5326004  73.1006289  53.1142139  37.3783493  73.3892632  54.0498352
  84.1798496  22.4359536  20.1062465  83.9304543  21.5351605  20.3126550
  83.3520222  22.9162717  20.0914383  78.0201244  31.5206337  22.0607829
  78.0626392  32.4685860  21.9350481  78.7267256  31.3288760  22.6773667
  15.6829953  59.3069267  57.3943663  14.9167717  58.7604189  57.5688982
  15.5585313  59.6141577  56.4963961   4.0147504  20.4827356  16.8560660
   4.1050303  20.6483126  17.7945042   4.3158770  19.5813441  16.7418361
  24.3668294  73.4698677  65.4221249  23.6356807  72.8993225  65.6590414
  24.7258496  73.0805254  64.6247911  80.2961636   5.0027764  34.7447324
  80.9671497   4.3268996  34.8406792  80.5171394   5.6556392  35.4089427
  71.9494486  12.5569832  18.7552798  72.0348454  13.5007751  18.6203814
  71.8584394  12.4577594  19.7029626  27.6409650  49.7492123  19.1253400
  27.1286702  49.9804354  18.3505356  27.7724981  48.8039207  19.0521693
  76.5213251   3.0377495  17.1328115  76.1187935   3.9045116  17.1868837
  76.1863136   2.6686427  16.3156462  76.8804407  27.5745869   7.6943070
  76.2108326  26.8913078   7.7258313  76.9109678  27.9213381   8.5859704
  38.1053424  13.7873065  26.6466999  38.7310576  14.4526100  26.3601899
  38.0404377  13.9115250  27.5935841  80.8397770   1.7548597   0.3341932
  79.9351788   1.5851703   0.5971402  81.2880898   1.9794433   1.1495491
  26.8596935  26.4478874  12.6219833  26.2041855  25.9226704  13.0809903
  27.6544523  26.3509345  13.1465697  11.7576373  36.0233879   4.2428941
  12.1984911  36.3190436   3.4463590  12.4444592  35.5909348   4.7503307
  73.5037422  18.8094652  31.9212365  72.6466274  18.7607098  32.3445654
  73.7306261  19.7390556  31.9461012  30.3883123  64.0407610  66.9662428
  30.4493928  64.3000984  67.8856134  31.0141349  64.6076059  66.5153980
   1.9562897  21.5897560  13.0192828   2.0429145  21.1362696  12.1807849
   2.2160852  22.4917316  12.8317237  40.9512424  64.2823219  68.1589222
  41.7352247  64.6052313  68.6031485  41.1946154  64.2544317  67.2335958
  17.0056570  78.0632448  57.4751329  17.8527629  78.0997896  57.0309401
  16.4339495  78.6202478  56.9468069   1.5930605  16.7354918   4.4046432
   1.7571934  16.0634804   5.0662267   2.2159055  17.4323082   4.6113876
  63.2601261  19.4755220  18.7706816  63.4215307  19.7676253  19.6678197
  62.8891993  20.2414417  18.3324897  65.5117989  31.8113303   0.0405412
  65.3942060  31.2692666   0.8206514  65.7446003  32.6748157   0.3817492
  76.8059111  27.6241589   1.8644910  76.6704941  27.0522904   2.6200444
  76.0848331  27.4125123   1.2716295  81.2857246   4.2984080  21.6324759
  81.3305187   5.2489352  21.5289259  80.4732800   4.0476105  21.1928558
  18.5010040  19.9198914   8.9573270  18.0370796  19.2316592   9.4341320
  17.9178679  20.1435542   8.2319587  24.6295762  46.0562658  24.8326397
  25.1571369  45.4286814  25.3266525  24.2284179  46.6109800  25.5016661
  80.1480293  33.5059786  24.4139957  79.6052456  33.6337996  25.1919889
  80.6770515  34.3017173  24.3576598  43.3789825  10.2292049  67.7204800
  42.9541111  10.6559145  68.4645462  43.6873484   9.3924505  68.0683088
   7.5085396  77.3830414  53.3493280   6.5694654  77.5662231  53.3207798
   7.9223347  78.2197714  53.1374741  19.3621778  80.1798153  63.6707163
  19.0311646  80.8944798  64.2146969  20.1070428  79.8312187  64.1604996
  30.8542562  55.2173138  54.8052263  30.1395178  55.5504131  55.3478384
  31.3169146  56.0017586  54.5105743  47.3229361  80.8676910   6.8072653
  47.4274254  80.1853752   7.4704075  47.8424740  81.6017818   7.1350086
  26.7997217  72.7646017  52.3434830  27.1362829  73.0773163  53.1832266
  27.4966383  72.2060585  51.9991493   8.9188868  17.3708057  17.5553834
   9.4883966  17.6329100  16.8320632   8.6109245  18.1964910  17.9290605
  79.0843534  44.0483904  10.2994752  79.4220018  43.2557726  10.7165861
  79.3871069  44.7620678  10.8609307  75.6306267   1.8673247  59.2145491
  75.3060246   2.3586571  58.4599209  74.8423672   1.6304089  59.7031689
  71.1643314  78.4168434  63.7836409  71.8009424  77.7183199  63.9353704
  70.5417109  78.3345222  64.5059967  67.5183535  70.5302382  44.8583364
  66.7902803  71.1396360  44.9799204  67.1453524  69.8097277  44.3504381
  37.0231175  78.1484270  65.1703215  36.3319612  78.0311346  64.5185709
  36.7182922  77.6578379  65.9336233  84.1816330  73.3691835  64.8640919
  83.8444233  74.2589712  64.9679852  84.5841217  73.1654882  65.7083368
  23.5661602  47.4177980  20.5779815  23.8144779  47.8911686  19.7839487
  23.8978839  46.5303659  20.4413986  25.7532787  21.7165399   0.5261403
  25.7040739  21.8042922   1.4780384  26.2383270  22.4901915   0.2390464
   6.4062500  60.6324434  16.8287385   6.7521900  59.7401571  16.8483424
   7.1834165  61.1898136  16.7889655   4.5740056  38.5871148  15.6903327
   4.7250670  39.3916321  15.1941812   5.4337662  38.1688261  15.7359171
  48.6309481  78.6610985  68.2563019  48.4408951  78.6910629  69.1939688
  49.0479136  79.5022011  68.0694342  30.1331210  32.7741051  14.8649049
  30.2420855  32.2629046  15.6667972  29.3229890  33.2651210  15.0021076
   7.8026229  31.1913085   9.2449325   7.9276395  30.4328823   9.8153651
   8.3355135  31.8801570   9.6421051   9.0346426  32.1688175   1.5473399
   9.4536728  33.0202293   1.4218719   9.7315335  31.6063714   1.8853195
   2.7570727  41.0406971   3.7341419   2.8296149  40.8214808   4.6630737
   2.1100000  40.4237223   3.3922756   7.6349813   9.7422421   7.3616886
   7.9296809   9.4441360   6.5011555   6.6881108   9.6023124   7.3523128
   9.8535550  49.2875862  11.8930376  10.2283609  49.9439240  11.3056958
   9.3898124  48.6838579  11.3127899  13.5809374  62.6210880  17.9720545
  12.9775870  62.4293375  18.6899900  13.2255948  63.4112644  17.5651395
  49.0070152  77.6639509  55.2371740  48.5135651  77.0561075  54.6864748
  49.3519783  78.3148336  54.6259594   3.0488834  30.4837084  22.3149753
   3.7689140  30.9760141  22.7092123   2.7462989  29.9020839  23.0123901
  31.7136812  37.3374867   2.5861639  30.7980108  37.1075726   2.4282947
  32.1836710  36.5059853   2.5233170  45.9111834  60.8679724  53.9609766
  46.7265511  60.5448580  53.5775614  45.5144215  61.3972616  53.2691240
  81.9167805  40.6105185  18.9438319  81.1863995  40.1406860  19.3463588
  81.8572521  40.3938723  18.0133748  15.5615401  33.5874319  16.4706886
  15.6659472  33.8707876  15.5623710  14.7697103  34.0334392  16.7712080
  32.9735708  62.2865105  54.3731308  32.1199036  62.2082424  54.7989941
  33.2012486  63.2120514  54.4612837  45.0514936  66.2581015  64.2551374
  45.0300789  65.4005432  63.8304424  44.1515732  66.5783882  64.1935968
  18.9372933  34.2167854   0.5878064  18.5597610  34.6139288   1.3726497
  19.8796380  34.2042732   0.7553235  77.8688192  50.3258371   0.8733429
  77.4618769  50.4056406   0.0106363  78.1513977  49.4125557   0.9213099
  53.4665442  63.7243271  57.5133753  52.7082777  63.9960432  58.0305147
  53.1524324  63.7248993  56.6091824  37.5836897  66.8441772  50.4136801
  37.4506402  67.0851421  51.3304472  38.5300326  66.9070673  50.2844143
  47.6457644   6.6785723  68.7292099  47.0101166   6.2142980  69.2738533
  47.5653648   7.5945383  68.9952469  77.8756714   2.3400216   6.3977480
  77.7662420   3.2562521   6.6522640  78.8028193   2.1579623   6.5509999
  36.5112877  75.1179695  62.4821997  36.1813545  75.5846977  63.2500172
  35.7470679  74.6580887  62.1347666  61.2273645   0.5238893  46.1237907
  60.4975462   0.9754483  45.6998873  61.8399906   0.3382447  45.4121351
  48.1385231  64.5841932  53.0464697  48.6664295  64.6150255  53.8443375
  47.8979206  63.6623573  52.9539442  61.1014366  74.2221451  56.1289644
  60.6393576  74.8745871  55.6026268  61.8601942  73.9798641  55.5980968
  74.3446732  77.3139620  61.8955135  74.7544765  78.1644106  61.7372942
  74.5583248  76.7969370  61.1188126  72.1750450  35.4346991   7.7403563
  71.2213087  35.4831481   7.6749969  72.3902702  34.5482278   7.4503905
  58.1944752  19.9916232  68.8771725  58.2471561  19.0694976  69.1284513
  58.9152908  20.4097676  69.3481398   1.9072813   6.8907344  65.7266855
   1.5846103   6.9436651  64.8270655   1.9087906   7.7971518  66.0343170
  29.6591377  75.0362253  56.0886288  30.1744747  74.3162489  56.4523554
  30.3040695  75.6014729  55.6634331  17.6234984  54.2306900  10.7714534
  17.6455653  54.1915417  11.7275977  17.9936528  55.0872803  10.5582058
  10.3514385  22.6146793  45.9042740  10.5016017  21.7905498  46.3674068
  10.9344327  23.2405567  46.3339567  30.3810859   0.7167909  37.3127508
  30.1589012   1.5957464  37.0056653  31.0029125   0.8622596  38.0257750
  18.8383281  62.9892683  12.7191281  18.5600603  62.1256495  12.4142289
  19.2598867  63.3877182  11.9577110  28.8606763  18.7630391  47.5107145
  28.4659576  19.0845442  46.7001200  28.1396580  18.3397567  47.9767609
  78.4135389  43.9676905  60.0568628  77.7909184  44.2072248  59.3704271
  78.9998484  44.7214937  60.1220942  74.5774794  80.8187485  60.4259443
  75.2190161  80.2678013  59.9774885  75.0426626  81.1519527  61.1932850
  44.7044849  72.4147367   6.3079101  45.6570911  72.4622393   6.3886565
  44.5458794  72.3720217   5.3649086  12.0543027  49.8490381  47.0163107
  12.9615712  50.1194334  46.8749523  12.1215534  48.9682341  47.3849440
   0.7208654  13.3795679  60.1865435   1.0530087  13.2386303  59.2999506
  -0.1561499  12.9961693  60.1775217  49.6568346  45.0949001   9.4788307
  49.6003056  46.0502481   9.4602895  48.7490225  44.7998333   9.4077635
   8.6260498  16.0092139  33.9277649   8.5631102  15.9672916  32.9735589
   8.1023645  16.7732763  34.1690016  80.9129715  29.3537354  57.7133656
  80.7428551  29.8120904  58.5362864  80.7306194  28.4346533  57.9089928
  12.7439284  31.7044735  36.2311149  12.5239003  32.6334834  36.3001347
  13.2775807  31.5265489  37.0055747  43.4831333  74.2199421  29.8021340
  43.5840178  74.1511488  28.8527560  42.6788998  73.7372828  29.9931359
  30.8180237  65.2922487   5.5721676  31.2102365  65.9771776   5.0306207
  30.6770086  65.7100201   6.4217639   5.0112152  32.4168706  53.8739967
   5.7778162  32.4350643  53.3010912   4.2674869  32.3386931  53.2765150
  15.9351802  22.3011351  61.6485882  15.2565646  22.9718971  61.7246819
  15.4527068  21.4751482  61.6139650  72.2563171  80.0507164  16.4469683
  71.8121910  79.2268801  16.6476679  73.1073904  79.7852850  16.0984659
  27.7148604  19.9812973  58.9303017  28.1841135  19.2555785  58.5187626
  28.4051847  20.5600810  59.2538691  85.2294159  23.8480592  63.5046959
  85.6292439  24.5221639  62.9551983  85.3897762  23.0297422  63.0347252
  63.8000298  75.3182268  46.3761282  64.4391966  75.6534004  45.7473516
  62.9858017  75.7696486  46.1536884  29.4005251  64.0236473   3.6644241
  29.7538853  64.7830153   4.1278103  29.8266196  63.2720375   4.0764397
  13.7414837   5.8303404  69.1504288  14.0737486   6.7247403  69.0737391
  13.3787942   5.7846051  70.0350761  47.1688318  53.1226778  18.3306038
  46.4226770  53.2043409  18.9245880  47.8470325  52.6970196  18.8550997
   7.2928423   6.1873907  57.4636745   6.9986403   6.9438946  57.9709959
   6.7310530   6.1855876  56.6886759   7.7174127  36.6565418  59.5227003
   6.7707396  36.7960215  59.4984770   7.8283757  35.8546948  60.0335407
  10.5845022  26.2711072  46.9704294  10.3495848  26.6835189  47.8016710
   9.7462243  26.0215235  46.5815449  23.2074738   3.6861297  45.7631159
  23.7057209   3.0185282  46.2345934  22.3114491   3.5883588  46.0853148
   8.3315897  26.4930797  62.2720003   9.0572166  25.8937883  62.4467802
   8.6295968  27.3361039  62.6136589  41.0269451  64.9371052   8.5336030
  40.5653334  65.4205894   7.8484821  40.7712555  64.0248919   8.3967674
  29.5393419  11.3950336  51.4302683  28.8097405  12.0142674  51.4086723
  29.4006371  10.8893013  52.2310352   7.6540112  17.2528672  38.2941413
   7.7657348  16.3056445  38.2134008   6.7078495  17.3878133  38.2412314
  35.5773139  28.0863261  69.9034882  35.1614785  28.7582064  70.4437542
  36.3223505  28.5311484  69.4994020  70.1935959  19.1212320  54.9514580
  71.0590887  19.0946364  55.3594398  70.1051664  20.0205255  54.6357298
  65.2016449  32.9447365  60.7655430  65.0751829  32.1428490  61.2727070
  66.1512804  33.0235195  60.6748629  85.6677577  15.4374933  56.1952400
  86.3378618  15.2053022  55.5523729  85.3525032  16.2961316  55.9131241
   1.0508717  12.3527133  67.2804594   0.6467865  12.0455313  66.4689302
   1.4919186  13.1661510  67.0354509  18.1802464  24.6513057  68.2552910
  18.2906342  24.1507983  69.0637064  17.5510430  24.1433477  67.7431250
  39.6788359  61.0500860   5.2038920  39.4067478  60.2476883   5.6492692
  39.8499155  60.7774305   4.3024358   0.8702722  11.5187514  64.6308994
   1.3253649  12.0219254  63.9556694  -0.0588736  11.6629076  64.4516277
   1.8700436  32.2387338  40.2375317   2.2711644  32.7652907  39.5461059
   0.9684008  32.1059299  39.9448967  75.7102013  68.9919949   6.1101216
  76.5849781  69.2721224   5.8408183  75.1695919  69.7769737   6.0219014
  63.0958414   4.4595668  33.3114052  63.0629444   5.2817458  32.8223538
  63.0071449   3.7798029  32.6433587  85.7574272  28.1309366  64.0145206
  85.4710770  28.0970263  63.1017828  86.5171337  28.7131667  64.0057278
  15.8490241  31.4050126  65.5176163  15.1244485  30.7863569  65.6097507
  15.6795752  32.0729852  66.1819458  67.0353603  15.4149294  53.6987448
  66.9892693  15.2366281  52.7594280  67.8982067  15.0943327  53.9613342
  24.4323063  10.6937802  54.8622084  24.7537208   9.8162144  54.6553183
  25.1396370  11.2783217  54.5897627  11.1219847  34.2153263  52.3638201
  10.7462347  34.8831367  51.7901707  10.8606362  33.3842850  51.9672108
  43.0911779  57.8445148  20.9806132  42.1358156  57.7903843  21.0048580
  43.3693981  57.0052433  20.6139493  75.7989025  52.9773664  65.4253244
  75.2935410  53.5173607  64.8176670  75.2455807  52.9107094  66.2035465
  39.7759724  66.4047098  13.9903939  39.7008538  65.8219433  13.2347667
  39.9920583  65.8241177  14.7200882  47.6084805  72.3463249   7.0589715
  47.6363420  72.6739693   7.9579186  48.3085585  71.6947269   7.0197278
  14.9167573   9.0278488  27.1500731  15.7562530   8.5742849  27.2259569
  14.2615581   8.3366382  27.2458553  85.0779533  37.6833749  48.7652397
  85.3725338  37.4086213  49.6335506  85.5263138  38.5151267  48.6122847
  53.7296820  63.3748484  21.9900060  52.8536749  63.0329227  21.8113256
  54.2311716  63.1733942  21.1999702  42.8400612  40.0000763   5.5400789
  43.5330963  40.1343298   6.1865377  42.5208426  39.1141319   5.7116419
  54.0309858  54.2110634   9.5948422  54.7905684  53.9991760  10.1374018
  54.4046879  54.5102930   8.7659639  49.0893936  75.1701593   7.7637345
  48.3619165  74.7006273   7.3556292  49.6384096  74.4816685   8.1389570
  83.0831432  39.1394997  63.5174751  82.3822308  39.1399717  62.8656006
  82.7151394  38.6675620  64.2645216   8.9783096  35.6455874  66.5166950
   8.5443640  35.0248051  65.9314156   9.5528746  35.1035380  67.0573330
  10.1721430  37.9799104  50.9126186   9.9785656  38.6458659  51.5723610
  11.1170685  37.8430319  50.9805393   6.6790217  26.7371392  66.7257166
   6.3368285  25.8830333  66.4618206   5.8995593  27.2757626  66.8619251
   6.5352124  70.4036951   0.6249519   6.3479835  69.4903946   0.8418891
   5.8019745  70.6737041   0.0720623  38.4331703  76.4584208   6.2558204
  38.8500261  75.6930494   5.8600080  37.7474380  76.0947943   6.8159801
  54.4064045  66.0168409  22.1521068  54.4130945  66.1225271  23.1034327
  54.1599274  65.1022196  22.0144606   8.6594200   2.4646318   5.9254652
   8.1803000   1.6511449   6.0833091   8.4538388   3.0142698   6.6816837
  44.1769075  55.7583857  19.1679132  44.1756916  55.7427692  18.2108414
  44.6599770  54.9713135  19.4196892  79.7062826  46.2162113  59.5527601
  79.9364424  47.0339394  59.9938726  80.3960609  46.0935307  58.9005518
  59.9209118   3.7499380   5.7949865  59.1164160   3.2778296   5.5802089
  60.5932808   3.0700365   5.8384228  47.9021883  55.3472614  23.6132741
  48.7466002  55.7902336  23.6968088  47.2601366  56.0017633  23.8882804
  60.4403496  73.2936430   5.5682802  60.5555773  74.0775204   6.1053973
  59.5310688  73.3375359   5.2724558  17.1018040  15.6893003  59.9297523
  16.1738515  15.6958687  59.6950340  17.1830463  16.3636708  60.6041861
   5.3523463  27.3309588  69.7053194   5.3291374  26.4506245  69.3302155
   5.0355506  27.8989792  69.0030193  28.6454749  24.1087031  55.5982065
  28.0268073  23.5359502  56.0514545  28.1809807  24.3857288  54.8084402
  34.4857526  31.2810302  68.6085510  34.5579696  31.7240620  69.4539738
  33.9870143  31.8881416  68.0618286  48.6038542  68.5312366   4.8913330
  48.0978155  67.7396488   4.7081685  49.1291809  68.6674738   4.1028538
  19.5588231  53.8381243  67.9241896  19.1954434  53.6205149  68.7825823
  20.3145528  54.3928146  68.1176472  22.3466659  77.6173830   0.0214136
  22.7012134  76.7376757   0.1503980  22.8871751  78.1775141   0.5784892
   7.8164190  38.4060764  40.6454802   8.4620571  37.7349067  40.4243135
   8.2579350  39.2343140  40.4575443  15.3723598  14.0239072  61.9603062
  15.6737721  14.7386301  62.5211573  14.4930351  14.2870831  61.6887188
  36.0485125  74.4920540   2.0946163  35.8694816  74.4405985   1.1557167
  35.5891871  75.2807236   2.3831561  14.7618532  32.2964454  38.1038117
  15.3397548  32.3537683  37.3429060  15.2675593  31.8065810  38.7522912
  11.2988782  24.5745659  41.2628508  12.2197533  24.3565321  41.1190319
  11.0466003  24.0564299  42.0271301  33.5499644  71.0900879   9.0403670
  33.8510394  71.9551945   8.7625670  33.8003182  70.5076551   8.3231986
  17.5128233  28.4001040  59.5376015  18.1024694  28.0375075  60.1987123
  18.0305159  29.0756774  59.0996170  10.8534849  25.6630754  62.7738857
  11.1248374  25.4384470  61.8838644  11.4955258  26.3111877  63.0636501
  64.9721909  59.4248199  19.9916720  64.5452547  59.8616505  20.7286477
  65.8154154  59.1357327  20.3404260  13.6790597  47.0252228  62.1705866
  14.4720197  46.5929079  62.4876785  13.6178553  47.8256559  62.6919222
  21.6625285  47.5376940  61.2525606  21.5605402  48.0394173  62.0613289
  21.8860006  46.6542006  61.5453529  16.5305007  56.3944101  12.7769113
  16.5219271  55.5033684  13.1264818  15.7464874  56.4447212  12.2300816
  27.5959849  12.4930108  62.4561977  28.0972433  13.1572545  62.9292202
  27.3252201  12.9279709  61.6476631  78.4424257  11.0418332   0.1012289
  78.1098127  10.7386696   0.9460317  78.5915041  10.2396703  -0.3993138
  34.2515039  33.8503814  66.7318630  33.5403466  33.7869310  66.0943222
  34.1699004  34.7323751  67.0947123  15.8189857   9.8865080  60.8522272
  16.4453483   9.7827524  60.1358891  14.9999166  10.1299226  60.4208231
  23.0363798  45.3626156  62.0012903  22.7850389  45.4889917  62.9162169
  23.9005303  44.9532366  62.0446491  27.4468184  20.3805137  50.9441328
  28.0195594  19.7485757  51.3787079  27.9192114  21.2110329  51.0017014
  82.1586037  76.6141939  67.7240705  82.6296425  77.3813248  67.3987103
  82.3307037  75.9336567  67.0733166  60.1683955  81.1925934   2.4498434
  59.8664920  80.3639185   2.0778435  60.9067954  81.4483870   1.8970624
  17.0969009  41.2434435  57.1972895  17.9185605  40.7544279  57.2416830
  16.4302135  40.6178093  57.4807310  39.0095711  34.0784836   3.4329182
  38.8209653  33.2636166   3.8983732  39.9578857  34.0663409   3.3033711
  32.0828700  11.2940586  50.0909996  32.3572946  10.4268384  49.7929144
  31.2590361  11.1389184  50.5530214   1.5650220  57.7525997  60.2443838
   2.2069806  57.8034067  59.5361900   1.8863297  57.0495415  60.8089304
  22.2442722  12.0777202  62.3283958  21.7160678  11.4947689  62.8737354
  22.3247337  12.8802705  62.8438282  21.5577674  28.3529282  65.4246855
  20.8233929  27.9733229  65.9072065  22.3033762  27.7946162  65.6451082
   8.9923841  45.5809784  60.2177238   8.9293081  44.6301079  60.1277351
   9.9312747  45.7633924  60.1797628  21.4771509  39.8321509  53.5508394
  20.8750081  40.1797056  54.2087650  21.4034081  38.8816929  53.6369801
  35.6306839  71.9573116   2.8495774  35.2069497  71.7412710   2.0189101
  35.8193254  72.8935719   2.7858424  41.8640566  64.8161125  22.2105575
  41.5062809  64.7978449  21.3229227  41.0994482  64.7236109  22.7789307
  85.7364082  29.3655348  61.7235947  85.2295589  29.4153452  60.9131289
  86.0936069  30.2462888  61.8372107  76.5168381  52.0986509  47.5616264
  75.5956268  52.3538685  47.5120115  76.9748592  52.9017687  47.8095150
  53.7971449  37.5844932  67.7095604  53.9675426  37.1857977  68.5629272
  54.6439600  37.9377031  67.4368334  81.0816479  74.2499113   7.0009708
  81.0545444  73.3157206   7.2078270  81.3266563  74.6706915   7.8250748
  65.5772734  25.3824091  13.5555947  64.6707773  25.4285002  13.8595319
  65.7760000  24.4462729  13.5359538   4.7811836  35.8293939  52.8090811
   5.3040236  36.1771441  53.5315323   5.4010153  35.3172827  52.2896767
  24.0593243   5.7444406  -0.0115462  24.2623353   5.2339011   0.7722700
  23.1171727   5.6290984  -0.1351475  27.3595595  22.1179771  56.9980717
  27.1117759  21.4006877  57.5814533  26.8978167  21.9321322  56.1804628
   0.6629597  42.0115423  57.6997042   0.6936656  42.3013020  56.7879343
   1.5755746  41.8299341  57.9241705  48.5300922   0.2831632  69.3071318
  49.3486691  -0.1712804  69.1080189  48.7739372   0.9420159  69.9572754
  46.5301704  32.6273489  65.2329350  47.4366331  32.4116516  65.0137663
  46.5452766  32.7965379  66.1749411  52.5720167  78.5102367   5.9835541
  52.0312643  77.7295685   6.1034489  52.1503258  79.1788960   6.5232807
  32.7146792  30.3288555  59.5078564  32.8704119  29.8853040  60.3416681
  32.1814299  29.7132134  59.0050030  46.0310221  68.6639118  62.1103382
  45.1032829  68.4305906  62.1435022  46.1799860  69.1679001  62.9103613
  62.5361538  71.4860439  15.5986369  62.3580456  71.8336487  16.4725244
  62.9630423  72.2073746  15.1363754  46.6090965  47.3684454  10.3414774
  46.5808678  46.4390707  10.5688393  47.3741674  47.4526834   9.7724444
  30.4860544  73.2681990  41.0518360  30.0483346  72.6620007  40.4542112
  31.4099956  73.2214928  40.8061123   2.4221222  36.2915778  56.8823862
   2.2897889  36.0240173  55.9729195   1.8977091  37.0867515  56.9768381
  19.0607655  30.3912354  58.1004763  18.5435939  31.0726476  57.6710081
  19.4793606  30.8367205  58.8370562  31.3308001  27.3815632  58.9156675
  31.8170476  26.8167353  59.5163059  30.8069944  26.7772198  58.3897114
  68.6711550  74.8824024   2.5467390  69.0134382  75.4050255   3.2719550
  69.4109201  74.3407536   2.2717921   5.6412256  26.2512350  62.5376272
   5.3507942  25.3411460  62.4774694   6.5969479  26.1980796  62.5387430
  11.3089526  48.8747978  58.8704205  11.1001122  49.1262341  59.7700882
  12.2399604  48.6536121  58.8935232  26.9209290  59.0335703  68.5522556
  27.7613544  58.6194992  68.3561468  26.4630342  59.0558386  67.7119732
  77.2797823  43.1531572  62.8495598  76.7675829  42.7400923  62.1543884
  76.8422508  43.9903307  63.0042791  77.3710680  10.6184518  10.3880119
  78.2184553  10.7568741  10.8111012  77.0574188  11.4999402  10.1859415
  82.8020191   4.0928358  61.8979216  83.0617046   3.4124485  61.2767410
  82.5074100   4.8190790  61.3483715  22.8035498  52.5601244  68.1124926
  22.2011065  52.5271416  68.8556004  22.2886920  52.2387409  67.3723125
  15.6987679  40.6593752  61.5229940  15.8857191  41.5793133  61.3359261
  15.3952348  40.6564474  62.4307919   2.9670653   9.1011250  13.5370934
   3.3539072   8.3227283  13.9379466   2.0443130   9.0669346  13.7892663
  20.8951855  55.9458876  60.7926607  20.3272891  55.1930046  60.6286764
  20.8552718  56.4566183  59.9840879  28.9493513  27.0800686  54.5307875
  28.8324261  26.5239358  55.3010321  28.2268167  27.7062988  54.5756102
  66.1710787  12.0607245   9.7048956  66.2987995  11.4638662   8.9675492
  66.2672091  12.9342127   9.3254113  58.3143902  65.9722853   9.3545061
  57.4769402  66.4050627   9.5206815  58.6193037  66.3494349   8.5292685
   9.6778756  15.0348139  48.1627560   9.5859247  15.8360922  48.6782455
   9.7473359  14.3373132  48.8146019  28.4268498  61.6339779  10.6549764
  28.7916875  61.1795521   9.8956180  27.7303290  62.1824360  10.2940273
   0.2660984   3.0687267  21.1606884   0.4268937   2.5038373  21.9165182
   1.1289617   3.1900704  20.7644892   5.1995569  80.5730057  67.1828747
   6.0701674  80.7847309  66.8460655   5.3590524  80.2379990  68.0652380
  66.8158579  77.8891230  60.8774090  67.3314762  78.1420565  61.6431713
  67.3083687  78.2338333  60.1325321  26.2339163  47.2890329  58.3901739
  25.3258777  47.0131016  58.2654476  26.7349339  46.4734411  58.3850765
  23.8873935  17.5979757  57.5215340  23.5994267  18.5029018  57.6416016
  23.5513711  17.3520541  56.6596508  13.4219563  51.7449522  20.8803582
  12.6147687  51.2310743  20.8556771  13.1359327  52.6294041  21.1087704
  52.3666430  80.3783798  13.2710922  52.0923805  81.2932396  13.3347631
  53.1625795  80.3295517  13.8005614  40.9194422  40.9039783  69.4266891
  40.7193899  39.9790335  69.5705271  41.6180372  41.0979319  70.0516510
  79.5986986  15.8943772  11.8346751  80.3437424  16.4870656  11.7353725
  79.9937153  15.0407302  12.0121014  52.4498558  70.0621605  18.7629342
  51.5187216  70.2559853  18.6549783  52.5975370  70.1147509  19.7072101
  54.8593235  72.9565859  18.2384264  55.3231573  72.2043180  17.8707623
  54.5315933  73.4322977  17.4751925  68.0570555  20.8264613  50.5670357
  67.4194288  20.1520491  50.8012009  67.5254154  21.5801263  50.3109503
  66.0724115   5.4625082   2.9017317  65.3598118   6.0398924   2.6277494
  66.3800573   5.0597978   2.0896912  18.6283863  38.6594510  58.5793209
  18.1092858  38.1249428  57.9784298  19.5358336  38.4960485  58.3222723
  73.0648422  78.3511591  10.7761991  72.9810333  77.7999067  11.5542281
  73.3753490  77.7563477  10.0935423  18.9257443  19.1677046  58.7770128
  19.7115862  19.2793906  58.2420301  19.2514145  18.8409936  59.6157217
  14.0101027   3.3146787   4.8901582  13.1643832   3.5963953   4.5414081
  13.7906063   2.8169960   5.6777912  39.6787620  74.7075558  32.6274300
  40.1420927  75.1725054  31.9307399  40.3712177  74.2818785  33.1329346
  32.1150088  50.2436161   0.2697777  31.3869262  50.3407049  -0.3439803
  32.0544624  51.0124445   0.8367577  85.0809479  32.0430970  50.9486771
  85.4167652  31.2570262  51.3794374  85.3687191  31.9595242  50.0395966
  17.4743128  47.9785395  69.9012995  17.7282321  48.8450575  70.2189589
  16.5569377  48.0763197  69.6461582  22.5409198  24.0958428  65.5620480
  21.7032695  24.2560673  65.1274204  23.1503677  23.9120293  64.8471975
  84.6140099  27.0649099   1.0247719  84.9002934  26.6243124   0.2246807
  85.4232025  27.2362232   1.5065187   4.5902589  42.2517967  62.2097015
   5.2447468  41.7274237  62.6711226   3.8250747  42.2398949  62.7846622
  59.7926283   1.2436271   5.1366353  60.6783247   0.9977047   4.8696193
  59.3693018   0.4135152   5.3555828  20.3270292  12.8482664  69.7404575
  19.8224354  12.8444803  70.5538464  21.1995459  12.5510013  69.9984884
  61.3310575  73.6813927  21.3904953  61.0653448  74.2143917  20.6411338
  60.8406353  72.8655338  21.2900352  27.0357561  41.2916517  61.9489002
  26.7598128  42.2056103  61.8798447  27.6440549  41.2802982  62.6878691
  19.4197452  49.4043255  67.3590183  19.2705297  49.0606022  68.2398272
  19.6754932  48.6393976  66.8435526  32.0577407  69.3005705   1.6488598
  31.5081429  69.8088741   1.0523692  32.8301954  69.0759897   1.1301018
  66.7656565  13.5086143   4.6980554  67.5393057  13.1527877   5.1351893
  66.3046074  12.7394009   4.3634275  10.4996300  49.2452383  50.4877329
  11.3354707  48.7815714  50.5388927   9.8787397  48.5861683  50.1773119
  42.2357893  18.6439359   5.0977749  42.3471832  19.4748187   5.5597889
  43.1220484  18.3951008   4.8353720   8.2220370   3.8086075  13.5065401
   8.1905478   4.7458613  13.3147192   7.3060077   3.5310939  13.4961414
  60.1030159  76.8536520   1.1525010  60.9578085  76.5461445   1.4541665
  60.1630545  77.8080130   1.1952438   7.7250862  30.4195690  66.8840837
   7.8833240  31.3573027  66.9929218   6.8120164  30.3618240  66.6026592
  35.2603030  79.8342514   0.8899420  34.5156884  79.7729874   1.4882949
  35.8414221  80.4775238   1.2958205  23.9068723  50.0784397  53.1648111
  24.2906523  49.4297934  52.5747204  24.3700767  49.9525595  53.9929581
  34.6039748  69.0149307  13.7018526  34.6640420  69.7919941  13.1461585
  35.4981899  68.8728333  14.0123725  39.4803071  33.9985681  64.7818232
  39.7165203  34.7582006  64.2494726  38.9915466  33.4310436  64.1857862
  38.5954237  47.2417831   3.4486473  38.5485554  46.3113117   3.6683288
  38.2651758  47.6888037   4.2279664  20.8088136  24.1103745  40.8466911
  20.7743883  25.0625396  40.7548904  20.7169223  23.9569378  41.7870331
  23.4316945  19.3627846  69.2596817  23.4984326  19.2483354  70.2076674
  23.6802197  20.2750373  69.1104794  24.3319225  33.9087105  61.1342382
  24.1575265  32.9851842  61.3156748  23.7974286  34.1068149  60.3652763
  52.6752710  35.2328634   6.4708203  52.2149134  34.6254253   5.8917505
  52.1737862  36.0460830   6.4123523  10.7567942  35.3471327  69.7901058
  10.6360197  36.0135770  69.1137218  11.1354756  35.8223701  70.5296898
  15.8214712  47.8218412  48.7566805  15.7703090  47.1519852  49.4385195
  16.6641665  48.2508564  48.9051485  49.5087767  64.6664047  18.6695540
  48.7080860  64.1667843  18.5098565  49.7394466  65.0289965  17.8142464
  51.5947819  75.0848532  19.4250846  51.7141438  74.4084740  18.7583816
  51.9438410  75.8807802  19.0239716  27.1356320  31.8071675  63.7671804
  26.6930151  31.1148524  63.2762384  27.9818439  31.9066286  63.3309841
   7.2939146  16.8206263  65.2575445   8.2133162  16.9540966  65.4880190
   7.0132953  17.6611137  64.8955154  25.0300765  19.5668411  51.8477917
  24.1759491  19.7832692  51.4738131  25.6522489  20.0904942  51.3428926
  44.6993732  51.8225622  23.3340597  44.2877340  52.6078129  22.9732728
  44.0437365  51.1345387  23.2200861  22.7138233   7.0797884  49.8928928
  23.2311082   7.0217979  50.6961918  23.3256841   6.8418258  49.1963100
   5.9747422  14.6878433  60.1924896   5.8430797  13.8268006  59.7956228
   6.7850554  14.5989490  60.6942081  63.9236879   4.2893711  67.1690559
  63.2946873   3.8367555  67.7309561  64.7226381   4.3373320  67.6940346
  20.3769302  42.5595188  17.3340571  21.2463045  42.5417519  16.9339252
  20.2386975  43.4778690  17.5659037  45.9798193  22.6757336  63.0627966
  46.8252659  23.1243825  63.0500746  45.6608486  22.7911949  63.9578724
  15.3223014  28.3239818  62.9161072  16.0186112  27.8412318  63.3614588
  15.6019628  29.2385697  62.9554605  67.7045441  24.6249747  48.8968182
  67.3442030  25.3497362  48.3858299  68.1714535  24.0888858  48.2558489
  12.9192722  56.8438721  42.6718378  13.4752131  57.5668573  42.9624462
  12.8842664  56.9363785  41.7197609  14.7765946  26.0854006  36.0182834
  15.0898397  25.3207374  36.5013981  14.8759449  25.8440709  35.0973487
  38.9064097  49.5334435   2.1949674  38.6320376  48.6563826   2.4627665
  38.8375258  49.5248890   1.2402874   5.7759070  31.4231110  61.3865709
   6.0078275  30.5125976  61.2037802   5.3188527  31.7167068  60.5984497
  23.1047058  46.5096807   1.7138489  22.8154063  47.3602295   2.0441498
  24.0603042  46.5650272   1.7142057  82.5000858  20.8330250  48.8008070
  81.6038990  20.5796027  49.0218544  82.4123859  21.3484883  47.9990387
  71.2760401  68.7132835  63.5414076  71.0586166  69.5591402  63.9331818
  72.2231483  68.6332655  63.6545992  12.0573354  43.0609465  60.7803154
  12.1304369  43.4184742  59.8954058  11.8272710  43.8139582  61.3246250
  33.4953761  76.5789700   7.7144980  33.6031032  75.6859255   8.0417562
  34.3889332  76.9091082   7.6207131  34.9339485  22.4185920   2.0015021
  34.9282885  21.5471601   2.3974907  34.8979568  22.2537589   1.0592885
  20.3210378  20.0684094  52.1741629  20.0042987  20.1990747  53.0679417
  21.1881280  20.4737687  52.1656799  12.9361856  21.4536405  59.0965176
  12.2590506  21.3820553  58.4237671  13.6905909  21.8242669  58.6385441
   3.6456141  42.1661425  59.3017817   3.7756398  41.8158484  60.1830387
   4.3470967  41.7736101  58.7821007  58.5593081  66.7248297   6.1538500
  59.4004822  67.1113062   5.9103477  57.9466391  67.0492649   5.4938430
   0.3750490  35.6530285  67.6390696   0.7810563  36.4810133  67.8956413
   0.3345850  35.6920791  66.6835213  31.7197537  71.1104822  18.0291831
  31.1144543  70.9554148  18.7543035  32.4633646  71.5606070  18.4300077
  38.4871483  66.8252802   9.6878237  39.2319441  67.1525908   9.1834670
  37.8770256  66.4961290   9.0277916  17.1308625  25.7495046  61.8148088
  17.3629344  26.1415339  62.6566458  17.9614711  25.6852055  61.3434410
  62.6153231  28.1115246  15.9972000  63.3484554  28.2094049  16.6047895
  62.2235394  27.2693014  16.2282825  78.6974335   9.3997228  13.7804723
  77.9706526   8.9512467  13.3481658  79.3939304   8.7443018  13.8197947
  19.7884083  21.3680935  66.5139151  19.9752975  21.7624593  65.6619835
  20.2474284  21.9258881  67.1419239  20.0055695  46.0130215  54.2314291
  19.6394694  45.1856422  54.5439196  20.9222126  45.8128977  54.0418148
  14.7218919  58.8259363  63.7218904  15.4783583  59.3720579  63.5080147
  14.1076338  58.9755201  63.0031776  79.4492006   4.3749392   2.2610740
  78.7453079   4.0119565   1.7234804  80.1471901   4.5761874   1.6377416
  20.3998590  54.3095398  57.2788382  21.2362361  54.4864845  57.7094173
  19.9227107  53.7588215  57.8995371  59.5239496   1.3384433  18.8398910
  59.5488739   2.2474839  18.5411346  60.4308271   1.1372808  19.0708387
   4.2616487  41.4279318  68.0446148   3.8968891  41.3214922  68.9231682
   3.5550916  41.8296003  67.5389767  85.6355000  18.3296990  10.5763125
  85.9834290  17.4447715  10.6862247  85.5105495  18.6505759  11.4694297
  -0.0432770  65.4880571  61.9846535   0.8836783  65.5706167  61.7606688
  -0.5047732  65.6744862  61.1670399  51.9570971  79.5805550   0.8167099
  52.9112625  79.6500874   0.7856710  51.7789459  79.0848589   1.6159484
  83.7485123  64.9207735  13.0113423  82.8793526  65.0805187  12.6435459
  83.6492729  65.0989056  13.9465714  15.2852678  36.9396782  59.8102760
  14.9815679  36.6485476  60.6700706  15.1492476  36.1834073  59.2395067
  65.7866478  72.7667332  13.3340323  65.2024937  73.1692266  13.9766777
  65.3115368  72.8304434  12.5055146  33.7902546  36.5704298  61.8539858
  34.5885897  36.3091636  62.3129368  33.1266856  36.6279221  62.5414467
  26.2165976  17.7930892  53.8224030  25.9201813  18.3205211  53.0806589
  26.1110711  16.8877959  53.5299301  64.5529699  75.1022482   7.8226709
  64.6741819  74.1534901   7.7853090  65.1548958  75.3938246   8.5074306
  84.6705246  49.5875263  63.1743193  84.7860336  48.7235594  63.5698557
  85.5615711  49.9028063  63.0231380  68.9857149  70.0021505   3.4490272
  69.0006733  70.9460402   3.6074024  69.8527813  69.7001219   3.7195936
  51.6526890  54.2608213  57.9887724  51.6827393  55.2136803  58.0747271
  52.5391197  53.9726210  58.2065153   7.8074616  48.0400419  68.5612106
   8.0348212  48.2605362  69.4644928   6.8722320  48.2331228  68.4956694
   8.5975087  11.9451618   5.1082814   8.0146033  12.6174712   5.4610610
   8.8624561  11.4329779   5.8722854  17.1815550  57.6163387  68.1127262
  17.6288319  56.8310356  67.7973413  17.8256989  58.0505514  68.6719847
  59.0133047  64.0126514   6.4302689  58.7506723  64.8762608   6.1117721
  58.8942528  64.0608025   7.3788154  11.4894187  44.9088287  49.5413828
  11.5263784  44.1608334  50.1375103  12.2299433  44.7796440  48.9487934
  70.9176540  21.6891909  22.5658774  71.8303871  21.4868760  22.3604059
  70.8678675  22.6440096  22.5203419  61.5691233  51.7364883  13.4071696
  60.9653616  52.3680639  13.7980855  62.4352264  52.0205975  13.6993587
  18.6308873  10.5486166  12.0517910  18.0376375  10.9138954  11.3953936
  18.8364911   9.6718681  11.7273378  56.6585493  45.4707050  56.2914419
  55.9631014  46.1283159  56.2799406  57.1070385  45.6109571  57.1253586
  40.8198486  81.1955489   9.2571861  40.1593385  80.5743649   8.9504468
  40.5643020  81.3912041  10.1586545   4.9485356   5.2326137   2.3398772
   5.0840169   4.5605475   3.0078623   4.4971365   4.7766984   1.6295168
  79.0417480  16.1583495   6.7939800  79.8293543  16.4087653   6.3110733
  78.9132690  16.8656743   7.4259734   4.8761505   9.5246220   7.9046857
   4.6606225   9.1976613   8.7781131   4.1174868   9.2938232   7.3685950
   3.5859567   4.4286636  11.8195999   3.0863616   3.6406493  11.6058946
   3.5185865   4.9747282  11.0363328  77.5237274  39.9550319  65.2963400
  76.7591810  39.8247170  64.7353411  77.4756956  40.8748627  65.5567932
  83.5233879   8.5034949   6.4843303  83.2065105   7.8275800   5.8851999
  84.4003773   8.7151039   6.1644173  74.4933653  11.7342460   8.7689996
  75.3837204  11.8608153   8.4411615  74.6085787  11.2949967   9.6116257
  31.6146684  73.6972761  57.7121162  32.0970201  74.5192623  57.6231813
  32.1377635  73.0589437  57.2272062  46.1951303  71.2522650  13.5107005
  46.4480114  70.3720379  13.2323408  45.5172348  71.1091137  14.1711521
  28.2798433  36.0635662  59.6978188  28.3166695  36.9935274  59.4741011
  27.9997873  36.0482931  60.6130075  28.8180280  37.1309614  69.5932627
  28.2289815  37.4182868  68.8956213  29.4199395  36.5233636  69.1634274
   2.7657059  69.2166328   2.5702792   3.1934482  68.8820601   3.3585244
   3.3886284  69.8472977   2.2090855  39.0250659  71.7209435  45.6061268
  38.9324284  72.6253700  45.3066969  39.7933912  71.7350960  46.1768341
  69.6805811  72.7227831   4.1185078  70.2766085  72.9098368   3.3932537
  68.8641834  73.1599665   3.8764372  34.8876977  66.4657354  60.2113485
  34.0251136  66.0598421  60.1251364  35.0586081  66.4673185  61.1531639
  68.3490705   8.1249869   6.0171747  67.7917433   7.3668993   6.1930221
  69.2261028   7.7573442   5.9081423  17.1381366  47.8200006  61.4336491
  16.6308451  47.0450687  61.6752386  16.5592098  48.5563231  61.6309071
   0.2447835  26.1039782  66.0151148   0.3683312  26.3778496  65.1062918
   0.3779299  25.1562071  65.9998703   6.1382604   3.9478952   4.4969842
   5.6010681   3.1822330   4.7004977   7.0043570   3.7314585   4.8423299
  76.2411404  20.6104684  17.5202882  75.7474566  21.1695528  18.1202328
  76.5337467  21.2024045  16.8273079  48.2661533  78.0068254   1.1615475
  47.5268269  78.6091471   1.0788643  47.9772902  77.2104549   0.7159165
  49.0096140  62.1082878  60.5499268  48.0816317  62.0262384  60.7698154
  49.1779041  61.3839340  59.9472475  15.4484582  28.5536766  56.8098402
  15.4971468  29.1255403  57.5758886  16.2144196  27.9847765  56.8865728
  20.4819465  76.3567162  42.5012827  20.7952261  75.8577824  43.2557058
  21.2412834  76.8668079  42.2194242  69.5326567   1.8805857  -0.2620625
  70.1391411   2.2230873   0.3945204  69.4206810   0.9594069  -0.0272793
  84.0252018  12.0836365   8.5458821  83.8970184  13.0042398   8.7745512
  84.3432426  12.1030879   7.6432711  45.7253265  71.3911963   0.8689813
  45.9303284  71.5951204   1.7814621  46.2741184  70.6343126   0.6635917
  49.3584490  18.5467660  66.4201117  49.5858049  18.0612266  67.2130728
  48.4484959  18.8118136  66.5541792  10.3981173  43.0132723  58.3712244
  10.5710065  42.3117542  57.7433586   9.6602035  42.6935816  58.8903713
  28.4793353  49.3926764  56.2146473  28.7420845  48.6404943  56.7451382
  28.9914632  49.3090868  55.4103041  35.8933163  70.6348610  58.1273699
  35.8264971  71.3955355  57.5501871  35.0429487  70.2018642  58.0523682
  27.6558042  28.7791705  56.0956192  28.3435464  28.8847280  56.7529631
  26.9518590  29.3568254  56.3905907  37.4773645  20.7878757  55.7302904
  37.1875095  21.6793823  55.5368137  37.1916890  20.6332397  56.6306877
  12.5371087  68.6595583  51.5949440  12.6897621  69.1270828  50.7737541
  12.1117115  67.8438330  51.3306284  32.4582076  27.3443890  52.1032429
  31.6565299  27.7575254  52.4239635  33.1568861  27.7416277  52.6231289
  10.7203305  37.5848842  66.0835075  10.1290131  36.8331027  66.0460472
  10.9319675  37.6770902  67.0124531  14.3928921  30.3904629  68.0730295
  13.6754894  30.9743214  67.8267097  14.4392908  30.4571819  69.0267754
   9.1598469  25.1254296  66.1612082   8.4491950  25.6954932  66.4548635
   9.9585211  25.5938601  66.4039516  74.7382832  26.0557818   6.9546670
  74.0332985  25.4100728   7.0025039  74.7315311  26.3507462   6.0440719
  58.5013247  80.3167725   7.0902514  58.5233498  80.4173279   6.1386031
  57.9423475  79.5538378   7.2376060  59.9427366  59.0484667  12.9954326
  59.9445820  59.9901819  13.1668949  59.1393614  58.8972521  12.4974847
  36.1784625  29.8348975   0.5442064  35.8625221  29.4437003  -0.2702730
  36.8002510  29.1954374   0.8916271  61.1696196  63.0925512  26.4704585
  61.0126829  62.3231030  25.9231472  60.9027386  63.8327026  25.9253120
  24.4840074  29.9634480  55.9041548  24.5233512  30.8879280  56.1491489
  23.7276649  29.6213460  56.3807487  28.8205147  38.3137202  63.3407831
  27.8923678  38.3480883  63.1092787  29.0647268  39.2275143  63.4876585
  54.5913601  75.5752182   6.8223101  55.4164124  75.4751921   7.2971934
  54.7794247  75.2459192   5.9434330  70.3986979  11.7130685   3.6706880
  70.2428865  10.7701457   3.6172971  69.9504471  12.0735979   2.9056260
  38.8260341  13.7422597   1.4042073  39.0920067  14.6425033   1.2169880
  37.8696918  13.7628865   1.3693298  36.8996620  67.3730946   4.2978719
  37.2274065  67.9658175   3.6214900  37.0290375  67.8501558   5.1175708
  83.1948853   5.8136070   2.5444701  82.9826260   5.0278914   2.0406576
  83.8668919   5.5272168   3.1630343  14.7757530  50.1086187  47.1104813
  15.4736388  49.6621847  47.5899458  14.8282897  49.7519588  46.2237644
  25.7117033  34.2837811  63.7063122  25.2603698  34.2530680  62.8627586
  25.9751678  33.3782458  63.8700962  55.5279779  74.9490261  19.9949574
  55.4842663  74.2178535  19.3787491  56.4624548  75.0581694  20.1712155
  46.2171459  77.4786186   5.2445233  45.3180933  77.7804279   5.3743196
  46.1696196  76.9069767   4.4782346  21.5335989  38.3707094  66.4864779
  20.9593797  37.6559758  66.2114191  21.7935586  38.1394458  67.3782015
  10.2674365  18.1130433  15.3897417  10.9672916  17.7324760  14.8590791
  10.1118660  18.9732230  14.9997151  85.1389980   2.8696120   0.6013724
  85.8358479   3.3351129   1.0639078  84.4405270   2.7787042   1.2495212
  68.5133886  19.1625381   2.0406732  69.0044022  18.5887456   1.4525431
  68.9868832  19.9940157   2.0145887   4.1521874  12.2081780   2.3001932
   4.0688908  12.1856165   3.2534951   4.3949109  11.3140273   2.0597494
  54.4992876  73.4148502   3.4685653  53.7078714  73.5480165   2.9468808
  54.2234373  72.8351116   4.1785225  80.8521271  29.2470694   1.5965977
  81.1010265  29.0188336   2.4922475  81.3549328  30.0381017   1.4024723
  52.3615170  62.8325510  66.3404560  52.7906036  62.7874947  65.4860020
  53.0064344  62.4761486  66.9514275  49.2131805  79.4661283  23.8408542
  48.5850382  78.8903713  24.2769384  49.2118120  80.2650928  24.3680096
  65.8331299  70.8334684  10.4769242  65.9148359  69.8926020  10.3209686
  66.7251015  71.1227322  10.6691504  36.1371160  35.6881428  63.2199669
  36.7343521  36.4351916  63.2581520  35.6268287  35.7479286  64.0276003
  80.1783494  19.8707086   0.3543622  80.3681330  19.0666277  -0.1290362
  79.2595533  20.0558216   0.1599938   5.7863957  50.9859276  69.3819046
   6.5314072  51.5862799  69.3542290   5.5478209  50.9427977  70.3078890
  52.7621126  10.9002912  12.4018168  52.6231194  10.5403340  11.5258348
  53.6126184  10.5533969  12.6711321  81.1273766   9.8694777  17.4992704
  80.2390957   9.7630215  17.1588826  81.1654949  10.7812464  17.7881563
  11.0159278  43.9433479  46.4011431  10.5798209  44.7943306  46.4443541
  10.5752897  43.4143591  47.0661545  51.1910152  73.5148525   9.0834600
  51.9594336  72.9812813   8.8808173  51.4143944  74.3883276   8.7619400
  49.2700529  73.8774967  12.0120704  49.2439461  74.6684790  11.4736474
  50.1996183  73.6559391  12.0673156  73.1042528  17.6957381   4.2074698
  73.9750576  17.6958883   3.8100672  72.8725338  16.7695606   4.2762640
  25.5283332  65.4262972  68.9120722  25.0700808  66.0210705  69.5057726
  25.5292583  65.8818626  68.0702353  19.4038820  35.0574493  58.0328751
  19.7815919  35.8369017  57.6254177  19.0486133  34.5529461  57.3011017
  29.3877554  28.2985163  51.9573021  29.0265131  29.1399312  52.2361565
  29.3869257  27.7627969  52.7505445   3.8606691  23.4621978   9.2036283
   4.5950758  23.0038548   8.7952167   3.4503850  23.9445782   8.4858471
  20.1153088  22.0699024  63.6227369  19.2395902  21.6834545  63.6195564
  19.9638915  23.0072737  63.5017490  63.2982111  61.8424797   4.0985072
  62.4751854  62.0379210   4.5464656  63.8130236  62.6450729   4.1824028
  67.4285841  59.9229193   5.4973155  67.7427244  60.8270168   5.5098736
  67.1750689  59.7700691   4.5870420  53.0396795  14.6925080   7.4238527
  53.8124371  14.9805975   7.9097348  53.3758593  14.4502139   6.5610033
   0.6816154  28.5707879   4.6831790   0.6743450  27.9236054   5.3883970
  -0.0609805  29.1432333   4.8757678  72.1577263  11.9325614  13.1201541
  72.7084303  12.4590862  13.6995733  71.5699148  12.5656140  12.7078962
  45.8861923   2.2684994  52.5821495  45.6398010   3.0942491  52.9988766
  45.1865721   2.1007288  51.9507885   8.1480175  13.9133477  62.0698214
   7.5877696  14.2104888  62.7868032   8.4554219  13.0505395  62.3478460
  82.0383549   0.8749547   5.5664611  82.6205158   0.6886835   4.8298305
  81.9285202   1.8256986   5.5504781  34.0255165  67.3040104  69.8157406
  34.8110008  66.7658806  69.7174549  33.9769697  67.4878407  70.7538700
  16.3891733  43.8112545  57.5246429  16.9872248  44.2539597  58.1267881
  16.7727721  42.9430056  57.4012518  12.7733827  30.9335542   1.6797033
  12.2859216  30.1671267   1.9817036  13.5857654  30.5751300   1.3222142
  80.4169655  37.6904917  48.0616951  79.7135878  37.9076338  47.4498606
  80.1545906  38.1032205  48.8845205  28.4534335  50.6089830  63.5139513
  28.5647202  50.1168966  62.7005005  29.3457341  50.8086777  63.7970591
   0.8501524  49.7680521  68.2007551   0.1614185  50.1286459  67.6423216
   0.4237115  49.6267223  69.0459824  37.6310802  51.8380213  55.5808544
  37.2550654  51.5920877  54.7356558  36.9352341  51.6598272  56.2135267
  19.4122434  43.4044600  57.8143406  19.8075712  43.4902430  56.9468212
  20.0234175  42.8527975  58.3025694  82.5889397   6.3798428  18.6339092
  82.9997921   6.9607472  17.9936099  82.7965641   5.4979396  18.3250916
  24.9748063   9.4036257  68.0696774  24.8697090   9.8965132  67.2558928
  25.2806473   8.5409844  67.7894211  55.8440018  64.6628952   4.0296665
  55.8363724  64.1417646   4.8325372  55.1137066  64.3199635   3.5145900
  26.0978961  41.6153002  55.5141830  26.6009665  42.4224710  55.4063463
  26.6794157  41.0343695  56.0046768  19.1903710  57.8632402  55.4343367
  19.6905780  57.0536757  55.3312063  18.2848310  57.5729799  55.5437803
  34.5515585  24.0525794  67.4878550  34.7284675  24.8157835  66.9378996
  33.9428854  24.3729472  68.1535196  75.6477690  27.7292871  24.5778775
  75.9559584  28.6312246  24.6659565  76.4475727  27.2097707  24.4963408
  65.6128454  77.0766401  27.0798516  65.3758192  76.9714308  26.1584520
  65.3619623  77.9760361  27.2905111  79.4556236  13.9127040  16.9338226
  79.9535131  13.6632669  16.1552846  79.8437309  14.7427809  17.2105491
  64.6026945   4.1181299   9.1043311  64.5998240   3.3046386   8.5998958
  63.6824608   4.2695048   9.3199390  81.8427944  26.9674873  65.2451324
  80.9013271  27.1389318  65.2667427  82.0972347  27.1416879  64.3389606
  77.6859474  30.5876684   9.1568297  77.1525288  30.5728936   9.9514854
  77.0509577  30.6492186   8.4432268  59.7354031  18.6660910  18.0167532
  58.7852335  18.5736001  17.9470909  59.9644327  19.3022633  17.3392117
  81.6530514  14.5114028  14.9236476  81.9791412  14.0454280  15.6935573
  82.0874405  15.3636813  14.9577153  20.2878809  70.1738977  59.8632765
  19.8392415  69.7843170  59.1128206  19.5967817  70.6260157  60.3472233
  17.9859412  26.9894338  70.0067186  17.9331160  26.2291026  69.4276333
  18.3285451  27.6899409  69.4516087  62.8660822  28.7891817  20.1221061
  62.3743916  28.7052345  20.9390688  63.0353642  29.7276926  20.0397992
  47.8487444  72.4062204  25.4684615  47.7503347  71.4596224  25.5709696
  47.7556419  72.5562143  24.5276833  25.4873776  60.6393147  65.2728796
  26.2713981  60.1199007  65.4510641  24.9179840  60.0510883  64.7768831
  29.9409747  29.6463370  58.0184126  29.4488072  30.0043392  58.7572193
  30.4042530  28.8918900  58.3822966  43.3462667  71.6992998   3.8976702
  43.6825991  72.3051405   3.2373124  42.4239254  71.9368458   3.9930147
  76.2947607  80.6729984  20.3584361  76.3425159  80.5536270  21.3069630
  75.8221674  81.4975357  20.2443004  14.7974133   3.3164650  10.4588735
  15.6777668   3.1341708  10.7874763  14.9392140   3.6943600   9.5909333
  32.4203944  64.9797297  63.1272173  32.1190572  65.6803513  62.5488091
  32.3018312  65.3302956  64.0099859   0.8877932  77.5265312  -0.0876495
   0.0140764  77.4933243   0.3018992   1.4840734  77.5256062   0.6611367
  20.6372285  13.2987285  17.5274324  19.7102439  13.3129549  17.7656150
  21.0917044  13.5952151  18.3159614  78.3854055   9.1231883  16.4957988
  78.5602140   9.2782879  15.5675638  77.5420952   8.6705273  16.5083349
  81.2630367  16.7263448   3.4922889  81.5572739  17.1772933   4.2836842
  80.3680611  17.0380282   3.3577344  15.2515244  41.8170023  55.0388479
  15.9657049  41.8104029  55.6761360  15.5333602  41.2072420  54.3569469
  27.7193260  10.6170166  59.2059374  26.9983602  10.0877357  59.5469666
  27.8272104  10.3208637  58.3021212  77.0753431  77.5794172  16.0610247
  77.2539520  76.6640902  15.8453727  77.8958225  77.9021883  16.4336777
  63.9269686  14.0581214  11.7409480  63.7929773  14.6758914  12.4597239
  64.0020180  14.6094787  10.9621000   5.5655062  16.3016915  13.1995940
   4.7369951  16.7572904  13.3486938   5.3155595  15.3871977  13.0674553
  40.4337883  45.8402109  62.0381641  40.5863762  46.2056732  62.9095888
  39.9345827  45.0393581  62.1983528  27.8834105  29.6565914  65.7303238
  27.4579191  30.2938318  65.1566410  27.1609354  29.1579008  66.1118603
  41.7980051  51.2050676  62.6289082  42.7092791  51.4034081  62.4133348
  41.3695335  52.0601225  62.6678705  10.3214405  78.0879631  -0.0096219
  11.0349034  78.2560625  -0.6252091  10.4867266  78.6874452   0.7180698
  81.7485237  10.9878731   7.0543706  82.3289680  11.2369943   7.7735817
  82.1376610  10.1891518   6.6982138   2.2376230  44.2318296  58.7462664
   2.8224334  44.6667910  58.1257534   2.6241300  43.3652925  58.8725901
  71.3705826   8.9121449   3.6221287  71.4304733   8.5214621   4.4939151
  72.2546911   9.2314541   3.4415069  30.2579546  29.8737502  67.1339655
  30.8849096  29.4773316  66.5289736  29.4389629  29.9108267  66.6398907
  76.8247986  78.7721252   5.7100022  76.9217110  79.1769361   6.5719569
  76.2570047  78.0167770   5.8626097  81.1711407   6.8080407   7.6614046
  80.3514385   6.5436667   7.2437608  81.3995075   7.6356846   7.2382200
  77.3544550  39.3430901  52.1826410  77.0824385  40.2596188  52.2296238
  78.2410717  39.3375969  52.5433636   5.7624805   5.9988165  34.1687465
   5.4619879   6.1284256  35.0682688   6.7012036   5.8310103  34.2516446
  26.2250543  27.3445511  65.2713585  26.5000534  26.4277792  65.2829599
  26.7054653  27.7294588  64.5383644  22.9640985  29.2251539  68.7970018
  22.7269530  30.0280285  69.2610979  23.7698531  29.4472766  68.3304691
  69.9261951   4.4784924  26.4450669  69.1545057   4.1969478  26.9364524
  70.6611633   4.0590110  26.8923831  37.7709961  48.2890415  22.8440547
  36.8899703  47.9903412  22.6186538  37.7420449  49.2374086  22.7175903
  19.1177309  33.2262754  62.1846151  18.2821584  33.5030150  61.8084955
  18.9480102  33.1628156  63.1245089  13.3161485  50.8176661  66.6511869
  12.7719784  51.5129185  66.2814093  14.2093289  51.0538435  66.4008188
  43.4024954  70.0942564   7.8325433  43.7061167  70.8441401   7.3209584
  43.2951355  70.4372406   8.7197113  24.5007753  14.0481520  65.8849764
  25.3901124  14.2864001  65.6231594  24.0512490  14.8859036  65.9960127
  59.9211454  29.1851878  56.3681221  60.0506735  28.7561679  57.2139311
  59.8872566  30.1189518  56.5758896   0.3165899   3.8384765  25.2596784
   0.6128988   3.7451544  26.1650634   1.1197052   3.9785245  24.7580552
  18.1096947  50.3267527  48.4439802  18.6490142  49.5359516  48.4453297
  18.2637954  50.7202911  47.5851345  25.1366091   3.9982972  29.3632007
  24.8716831   4.8293483  29.7574067  26.0774469   3.9429834  29.5305252
  42.4655485  75.8418798  11.2479019  42.4962282  76.7938662  11.1529720
  43.2852030  75.5359221  10.8595920  20.2421069  23.7061715  59.3544722
  20.7214141  22.9102755  59.1241455  19.3350542  23.4182215  59.4572926
  65.2368689  78.5348463  19.5881951  65.4424524  78.4682798  18.6557066
  64.2838526  78.4556055  19.6296024  80.9082699  30.5983973  69.7977734
  81.7991638  30.2536726  69.8585367  80.4528904  29.9849439  69.2211103
  76.1069727  26.3788152  20.4497123  76.8833542  26.9372392  20.4900789
  76.4528799  25.4975677  20.3083634  33.8992095  20.2969956  68.8853550
  34.8107290  20.0576329  69.0528917  33.8490796  21.2248206  69.1152763
  29.5554185  58.2451963  14.2067397  29.7918296  59.0787029  13.7997901
  29.4737029  58.4482765  15.1385736  65.9641886  66.4206362  25.0808191
  65.0701618  66.4718008  25.4189467  66.4373589  67.1078920  25.5498838
  33.8385582  69.6903181  45.0132322  32.9118991  69.5885515  44.7960234
  33.8394165  70.1804876  45.8354044   8.2125086  25.6747508   5.4412115
   7.3729658  26.1238742   5.5396467   8.0205411  24.9304748   4.8707443
  29.1300559  26.2738323  21.3283086  29.7278047  26.9203711  21.7036963
  29.2434096  25.4967070  21.8755388  22.9337049  28.1652260  18.5204041
  23.7264800  28.5734820  18.1724584  22.3397660  28.1184959  17.7712154
  30.6360006  35.8508730  66.2503242  29.8730445  35.2729774  66.2374210
  31.0324788  35.7049727  67.1092463  39.2629361  62.4183369  52.3582554
  39.4894409  61.8304873  53.0789232  39.7157788  62.0517588  51.5987873
  39.4117045  63.9020967  46.4330435  39.9348545  64.5563698  45.9699297
  40.0407600  63.4421444  46.9888878   9.1588229  63.4454584  66.3522816
   8.9615881  63.2632828  67.2710562  10.0920963  63.6580229  66.3452482
  19.2036676  71.5736771  56.5507507  19.0972269  70.6470251  56.7657280
  19.8606944  71.8895245  57.1710634  32.5731277  69.9163103  65.7528877
  32.8187299  70.0195169  66.6722679  32.7107835  68.9866686  65.5711079
  53.3963203  69.7402620  59.2783546  52.7914906  70.0579405  59.9487972
  53.0812597  70.1348782  58.4651852  26.8082190  52.4090004  64.5833826
  27.3191857  51.6503620  64.3012285  26.4734340  52.7879810  63.7706614
  22.9691362   1.8179126  14.9380600  22.5688314   2.5191954  15.4520535
  23.8827038   1.8033469  15.2233934  40.9891319  58.1094170  53.6867905
  41.0625935  57.9906273  54.6337461  41.8708515  58.3555937  53.4071684
  43.9333439  58.2076836  68.2312441  44.4243288  59.0251541  68.3143425
  43.5093737  58.0953884  69.0820503  38.7869620  49.2338800  55.8288860
  38.4135461  49.1161776  54.9554253  38.2770419  49.9469423  56.2132692
  11.2868357  38.1259894   6.3118356  11.3988698  37.6603317   5.4830766
  10.4291475  37.8448224   6.6305029  21.1572695  26.0138941   8.2318872
  21.7031288  25.5339551   7.6090509  21.6733694  26.0326862   9.0378141
  51.4123583  70.3954983  65.2653456  50.5922699  70.8587646  65.4358435
  51.8445206  70.9151220  64.5875120  82.7685452  20.9559631   0.1106160
  81.8923187  20.6983066   0.3971121  83.1016254  20.1911235  -0.3587544
  14.3208110   8.0977857  11.9567764  13.5589111   8.2281637  12.5213480
  14.6554601   7.2350401  12.2015476  33.9987302  58.7228298  54.3225622
  33.5513616  58.7925625  55.1659060  34.6818733  59.3923903  54.3577385
  13.6638010  55.9160852   4.4588828  13.1950867  55.1068640   4.6630859
  14.4969177  55.6235790   4.0893045  77.4844074  66.3620138   8.5150856
  76.5502405  66.1578274   8.5583752  77.8666258  65.6326723   8.0270267
  35.9700584  66.5737486  48.1531429  36.2828755  66.6206455  49.0565681
  36.0748267  65.6536627  47.9108572  74.9052620  18.5384977   6.4121819
  75.3990984  17.7428985   6.2137365  74.1105080  18.4651494   5.8837718
  25.1179099  28.1694508  11.4410341  25.8406973  27.5899744  11.6819036
  24.3415451  27.7516532  11.8137717  21.6989112  14.4832528  31.1850023
  21.3142514  14.5987594  30.3161383  21.6732502  15.3564394  31.5763068
  12.6038837  38.3431768   9.8383152  12.9724586  38.6355948  10.6719065
  12.3474646  39.1509223   9.3933111  41.3558960  75.1431274  54.7012663
  42.1343803  74.5923519  54.6185207  41.6071224  75.8200598  55.3296614
  42.1308708  29.9492145  62.5660706  42.6000404  29.2379117  63.0021381
  42.2420120  30.7013464  63.1475973  37.0893478  64.0818882  61.3519955
  36.8354464  63.5155106  62.0806837  36.4030504  64.7481775  61.3161182
  28.8214445  26.0679030  25.0786495  28.8907623  26.9369411  24.6834302
  27.9176307  25.8003807  24.9119616  77.8288269  75.2629900   7.9673749
  77.5417376  76.1715174   7.8758132  77.8934765  74.9404812   7.0684630
  54.8696947  26.3828492   4.0346122  55.7641840  26.0611653   3.9221677
  54.4212294  25.6827259   4.5088840  22.4685764  58.9701891  56.2510633
  21.8424606  59.5721483  55.8487463  21.9449782  58.2061720  56.4926291
   7.1719956  38.5028911  14.6656406   7.0188892  37.7792525  14.0580738
   7.9319435  38.9606595  14.3062544  85.9747314  26.4589024   6.0780776
  85.9734154  25.5956531   6.4916378  85.3419399  26.3832903   5.3638756
  71.1430216   2.7789968  59.6807623  71.5186739   3.6429778  59.8500443
  71.1727238   2.6873249  58.7284231  46.4600992  61.0784435  61.5560102
  46.8009138  60.2146339  61.7882013  46.1271191  60.9729195  60.6648207
  37.6976609  56.1816835  66.6966009  38.1751537  55.6649160  67.3455858
  38.3332801  56.3345718  65.9974241  39.9972153  61.1672258  50.0033712
  40.3600979  61.6113234  49.2369986  40.6433105  60.4945850  50.2186680
   1.2978673  11.2638307  11.3797605   0.4976016  10.9161019  11.7733228
   1.7424913  11.7132998  12.0984530  17.5302267  64.1427231  45.3157234
  17.2231805  64.3361902  46.2014580  18.3415926  64.6430969  45.2288580
   6.1508358   8.9879364  14.0402746   6.5808558   8.4576333  14.7111642
   6.0790312   8.4054250  13.2841289  41.0621977  51.4868736  59.0690994
  41.3818073  52.1877098  59.6373510  40.1339722  51.6843939  58.9441252
   7.7107841  60.8665323  63.4058619   8.5945529  60.6841421  63.0866146
   7.6860428  61.8174839  63.5122108  19.7496808  16.0835648  15.2708626
  18.8106990  16.0169685  15.4443824  19.8637927  15.6778848  14.4114244
  45.5300426  58.7923098  51.5040302  45.8442402  57.9189539  51.2700319
  46.3007212  59.2377853  51.8559456  61.0675859  59.7541475  61.1397171
  61.8257475  59.2027617  61.3330936  61.4105892  60.4411268  60.5681896
  42.6551008  76.7566824  68.5330725  43.4833002  76.7758465  68.0535316
  41.9845247  76.7143631  67.8513336  23.2085800  31.5679193  61.8499422
  23.0364656  31.8611526  62.7447176  23.2928777  30.6171298  61.9215202
  32.4813080  80.6025791  48.5379076  32.7196455  81.1358929  47.7796125
  32.7786040  79.7208214  48.3135366  70.4227257  49.3445492  57.8257561
  70.0401402  48.7449646  58.4663534  71.1084747  49.8055601  58.3089209
  45.3823996  50.6064749  63.2325649  45.9956932  50.7616377  62.5142145
  45.5275154  51.3372850  63.8334703  21.0057449   6.7473733   1.4111905
  20.1584959   6.4581257   1.7499208  20.8621907   6.8600845   0.4715520
  42.9010391  52.4486828  53.4422112  42.4152708  51.6680813  53.7085104
  42.5710535  53.1425047  54.0131378  61.1608791  79.0153265   5.5264550
  61.5191746  78.8791370   6.4035583  61.1884785  79.9638796   5.4010791
  36.0337305  59.1634560  46.9386816  36.2123823  58.2793045  47.2589779
  36.3987470  59.7397614  47.6101494  45.0259256  48.4494400  70.0933313
  44.8390722  48.2582903  69.1742134  44.1639948  48.5135794  70.5046558
  73.2138634   3.3591536   3.4536722  73.3395576   2.5939596   4.0148416
  73.7402630   3.1747448   2.6757714  42.9784822  45.8640814  66.4950705
  43.7908411  46.3616943  66.4018440  43.2411528  45.0577021  66.9389057
  51.8168068  80.1137638  21.4250469  51.7432356  79.1790199  21.2325048
  52.0274162  80.5160236  20.5823946  46.0394907  51.4631367  59.7123718
  45.3092718  51.7209148  60.2750111  45.6923628  50.7447958  59.1834879
  84.2810154   5.4897594  54.3522024  84.3378830   4.8134676  53.6772013
  85.0546265   6.0353398  54.2103910   1.9207689  57.2867584  68.9611292
   2.8079039  57.1673203  68.6220741   2.0194051  57.2394514  69.9120569
  56.9852352  79.8837709  46.9869852  56.4895201  79.2827034  47.5430584
  56.3166666  80.3728294  46.5073347  46.6771412  45.5238914  65.2396297
  46.7720032  46.1118507  65.9889889  46.5945148  44.6527719  65.6276464
  49.2438507  11.7985797  40.3508282  49.0214396  12.4284720  41.0363913
  50.0317717  11.3613772  40.6737328   9.2229265   3.4488666  11.0265911
   8.9268768   3.2990417  11.9244432  10.1196873   3.7701496  11.1205506
  18.6628854  77.3424482  15.2731454  18.6125374  76.4960051  15.7172501
  19.5959854  77.5558567  15.2694440  34.6382403  52.9822922  64.8983812
  34.3273711  53.2126331  65.7739019  34.0002584  52.3448086  64.5777130
  45.9135580  76.7695761  38.9472508  45.9663248  77.4756241  38.3030868
  45.1253080  76.2832832  38.7055707  36.0618496  59.5737410  60.2394104
  35.2936149  59.9658871  60.6544638  36.8011308  59.8838520  60.7624102
  41.7131567  65.0158119  33.6762643  42.1243668  64.6674538  34.4673276
  41.0822153  65.6597376  33.9979887  59.7180367  80.0788403  13.5354650
  59.4291019  80.5298138  14.3287933  58.9131355  79.9249220  13.0408192
  66.2868929  29.6088815  28.9970922  66.3261175  28.6896205  28.7331724
  65.5301428  29.9606037  28.5282111  38.0814767  70.0832319  43.5793066
  37.1547604  70.3063917  43.4919500  38.3697486  70.5581331  44.3587923
  25.0900960  28.2582521   8.3493543  25.5020881  27.3943281   8.3380878
  24.2200875  28.1039310   8.7174600  10.0449598  66.5278625  53.3581352
  10.3943288  66.4163542  52.4739742  10.7070911  66.1371326  53.9283466
  29.8934770  73.7402344   8.8879019  30.4106617  74.4187975   9.3218422
  29.0175056  73.8300133   9.2631966  22.3359728  19.1405022   4.3633309
  21.9532895  19.0521681   5.2362466  22.3707652  20.0849462   4.2115188
  30.7328296  64.4897223  56.1333370  30.5535007  64.3935347  57.0686579
  30.4678130  63.6530018  55.7513618  62.7839756  21.5942049  22.9445028
  63.5258007  21.5878296  22.3396158  62.4881792  20.6842232  22.9703498
  22.4124002  21.9629264   4.5720929  23.0669546  22.6591372   4.6276015
  22.0270085  22.0653415   3.7019110  84.7034550  12.1278083   4.4522348
  84.3292618  12.9386997   4.7967243  85.5697060  12.3804855   4.1328794
  18.0901337  63.2270861  23.6362100  18.2809007  62.2893810  23.6596227
  18.1809556  63.4670258  22.7140331  35.9064746  50.6504345  57.8329659
  35.6832647  49.7317076  57.6834631  35.0824738  51.0563612  58.1021833
  56.6453648   8.0322033   0.4402856  55.9832001   7.3439616   0.5042985
  56.8321800   8.2700455   1.3484500   6.4318424   2.2230737  10.5301893
   7.1415806   2.8338355  10.3315091   6.2317753   2.3803629  11.4529383
  45.1226997  46.3940096  52.5536585  45.5497980  45.5383921  52.5953579
  44.7588062  46.5229940  53.4295416  60.7754850  65.8368826  57.8424835
  61.5351582  65.5113506  57.3596191  61.1460924  66.2464190  58.6242485
  53.5751820  77.8151798  63.2835340  54.3227530  78.2616711  62.8860235
  53.7228012  77.8936434  64.2260218   1.6183372  22.1177816  16.8861985
   1.7958146  22.9002666  16.3642335   2.4014214  21.5773582  16.7815316
  62.4040651  78.2990694  19.6544266  61.8847418  78.5988379  18.9083230
  62.2475481  78.9546871  20.3340602  57.5738716  64.1599035  69.2364454
  58.0473423  64.0982342  70.0660563  56.6690874  64.3423748  69.4900322
  19.3748438  28.8172293  14.6243727  18.4521306  28.9333153  14.8509896
  19.7583377  29.6880960  14.7280645  85.6717491  24.2244577  14.6615922
  85.5334187  23.2823324  14.7590446  85.4466057  24.5893788  15.5173826
  84.8327351   6.8415076  12.1098351  85.4683685   7.2418398  12.7030826
  85.2205276   6.9414729  11.2404346  15.2916074  34.7834635   0.6488003
  14.5551395  34.2391586   0.9273297  14.9316418  35.3371525  -0.0440811
  41.5717936  59.9686241  64.2143345  41.3128471  60.8871078  64.1397476
  42.4922037  59.9571800  63.9517593  25.8179927  44.4991875  62.9621172
  25.6196809  44.3749666  63.8902712  26.7119360  44.8412323  62.9518938
  42.1551657  64.5602274  49.6168518  42.8690290  65.1400328  49.3514204
  42.5094032  63.6779261  49.5059824   1.6257186   3.5507768  50.7894754
   1.6652295   4.1008422  50.0071096   1.5614083   2.6576170  50.4513025
  83.8169575  18.8953745  68.4900141  83.1815624  19.3759906  67.9594374
  83.5436344  17.9806387  68.4208298   8.7842357  24.9118209  15.3954709
   8.3215183  24.3874669  16.0490572   9.1846758  24.2677498  14.8114753
  33.5712194  45.2772570  68.5128927  34.0180397  44.6296358  67.9677629
  33.7946200  45.0300694  69.4102335  82.2244453  45.6888390  14.6201599
  82.0481968  45.4021883  15.5162621  82.9574203  45.1437235  14.3340981
  49.4759703  68.7574434  62.3341560  49.3332338  69.6947575  62.2026157
  48.6796999  68.4526491  62.7692318  61.1929798  51.1927032  69.2087317
  60.9089088  50.4193354  68.7214565  61.0450792  50.9651232  70.1266432
  52.2344112  69.1267872  49.4367123  51.6385365  69.8754072  49.4096327
  53.0562210  69.4616938  49.0779686  67.3579788  78.0083799  69.1048956
  67.8862810  77.6978683  69.8402262  67.9468346  78.5789204  68.6109686
   5.6435084  14.3899655   8.8339317   6.1159313  14.2425394   9.6532696
   5.3308630  13.5221493   8.5782385  19.3269038  34.1891384  14.1507339
  18.7861550  34.9761605  14.0842640  19.9519420  34.2664123  13.4299088
  68.8015223  32.8318977  16.2225950  69.6171045  32.5429273  15.8132565
  68.5496473  33.6127520  15.7295871  40.3567553  67.3978949  54.8458338
  41.0985565  66.8103027  54.9896955  40.6617212  68.0088329  54.1750288
  20.0798869  72.3460293  69.0753222  19.5648098  72.5298882  68.2897520
  20.5492496  71.5374279  68.8701677  72.4059105   8.5928941  61.5869856
  71.7358208   7.9106987  61.6295958  72.1840048   9.0980697  60.8048153
  18.7688959  45.9600306  68.8554287  19.4584990  46.4713478  68.4320641
  18.3036005  46.5924978  69.4028950  77.0720863  11.0062170  28.3155656
  76.7034197  11.2456751  29.1658449  77.8110933  10.4357827  28.5270047
  37.7251744  69.6724796  56.1100340  37.2643471  69.8454189  56.9309855
  38.2676339  68.9062357  56.2966824  36.2968612  54.0770531  58.2563400
  36.6670036  54.4547272  57.4584770  35.3630829  54.2817402  58.2073784
   4.5377377  12.3163152   7.6103216   4.9799559  11.5213180   7.9080707
   3.6136833  12.0717680   7.5598061  41.5572214  50.7383633  55.3542757
  40.7684517  50.2357960  55.1505518  41.6204739  50.7082939  56.3089132
  48.8922834  54.6640348  62.9461002  49.2651653  53.7916756  63.0732965
  49.1612482  54.9128723  62.0618105  38.6092257  65.1402426  52.6250696
  39.2884398  64.4759369  52.7416992  38.9428592  65.7039404  51.9270945
  72.5193977  60.9890985  59.7364283  72.0513391  60.5965710  60.4733658
  72.9081154  60.2453375  59.2760515  73.3245802  29.1365147  14.5508134
  72.9046917  29.4895172  13.7663913  72.8904438  29.5842576  15.2769566
   1.1118925  27.6136613  16.2086475   1.2858260  28.0852270  17.0232677
   1.0758913  28.2969999  15.5393314  16.6195214  29.5121741  11.8647230
  16.2178946  30.3095818  11.5196621  16.7824435  29.7061610  12.7877927
  19.8587823  41.9392300   6.9291914  19.9536204  41.2781191   7.6148850
  19.0265989  42.3697519   7.1250278  24.9731994   1.3014072  10.1122570
  24.0901089   1.6705924  10.1216364  24.8541379   0.3889260  10.3757608
  24.8923755  55.9004831  63.7397528  24.6215177  55.3185320  64.4498253
  25.8457685  55.8192062  63.7139416  67.6107216  28.3230710  22.0962524
  67.9427910  29.2084432  21.9476795  67.8385830  28.1313205  23.0059457
   3.5669386  27.0433736  13.8551295   4.1055828  27.0596313  14.6462238
   3.2900137  27.9517603  13.7352145  51.4542007  78.6972332  59.8344469
  52.3974085  78.6434221  59.6805334  51.0617733  78.5301876  58.9775181
   8.6365652  14.5594263  -0.0387923   9.1418880  14.5411122   0.7739469
   8.7036747  15.4647827  -0.3422019  64.4740963  33.0280113   6.6046649
  65.1264620  32.8802609   7.2893703  63.6584759  33.1842971   7.0806557
  36.0697317  54.8151588  54.4386482  35.7668209  55.6184816  54.8619080
  35.3325391  54.2098188  54.5183134  62.8674507   0.1178006  42.3418951
  63.3213282   0.9343159  42.5505352  63.5677624  -0.5274922  42.2449684
  81.4966679  29.0592766  10.3085113  82.3262024  28.5872483  10.2357984
  81.0653496  28.6698151  11.0691142  47.5199080  66.5664101  60.8057547
  47.8398275  66.0638762  61.5549803  47.1666098  67.3692036  61.1890745
  83.2838154   8.5169113  16.5703511  82.7305031   9.1093010  17.0794213
  82.6765823   7.8675145  16.2156832   2.7992922  26.4197636   4.4984594
   2.7000135  25.7344723   3.8375881   2.1064547  27.0488000   4.2971656
  25.4699683  61.8767691  58.1016541  25.0891018  61.0017014  58.1753397
  24.7348309  62.4713087  58.2510710  63.5681391   9.7903103  57.6141310
  63.7952280   9.0689415  58.2008934  63.5902548   9.4032276  56.7389727
  27.7598953  77.3824644  67.2454166  28.6605954  77.2229052  66.9634390
  27.2581935  77.4258137  66.4313841  16.3952601  23.3969092   0.4600891
  17.2637606  23.0248857   0.3066704  16.4613557  23.8130260   1.3195726
  41.9433546  51.8523264  69.4442654  42.1123934  50.9233284  69.6011925
  41.0862637  52.0100307  69.8401880  64.4308805  68.3174515  64.5182180
  64.6694183  67.6602793  63.8644171  64.2067957  67.8093338  65.2978563
  36.5346670  57.8322268  21.5508270  36.3848209  58.6505699  22.0242071
  35.8153272  57.7846098  20.9211349   4.3720093  15.4500782  17.0613539
   4.7446680  14.9036729  16.3694012   4.7780994  16.3075066  16.9343078
  57.5198603  64.2968225  63.3343840  57.4724770  63.4475613  63.7734127
  56.7373800  64.3258190  62.7838278  17.5339222  12.0402253   7.5001323
  16.6625023  11.7196000   7.7326399  18.1254935  11.5781605   8.0940783
  48.4421301  26.8229008  64.5770836  47.5621510  26.6778970  64.9247026
  48.7293243  27.6396728  64.9852943  64.3062401  10.1983535   2.2144890
  63.8822508   9.3402088   2.2070478  65.0084257  10.1129889   2.8593761
  20.9053016  23.2202268   1.6562268  20.6198192  22.4399519   2.1315208
  20.9431911  22.9426503   0.7409413  33.9485955  60.6194735  62.0846605
  33.6391282  59.7349215  61.8896389  33.4073949  60.9057856  62.8204298
  67.2631836  75.0873280  12.8481531  67.1137381  74.1570902  13.0171239
  66.6469193  75.5377007  13.4257507  11.8733227  48.2905340   5.1627058
  12.5586414  48.9539385   5.2431053  11.1499095  48.7446260   4.7306135
  62.1364403  56.9961691  59.5978117  62.7934742  57.3281050  58.9859724
  62.6455593  56.5812922  60.2941656  17.1209192  11.8993866  14.3614483
  17.6005614  11.2810814  13.8102007  16.2172747  11.8466854  14.0501893
  17.7786887  14.6024895   6.3973147  17.8234494  13.7022734   6.7195553
  17.1297538  15.0260317   6.9592118  55.8201694  69.7987604  66.0623169
  56.3265467  69.2134905  65.4990482  54.9098206  69.5389938  65.9208536
  25.8468485  29.7584510  62.6267099  26.0454178  29.3526483  61.7828321
  24.9472022  29.4913268  62.8151512  26.4140654  48.6901808   2.4513653
  26.8931079  48.8483763   3.2648295  25.7788396  49.4046974   2.4046572
  67.6736784  73.2766819  50.1412392  67.0432663  72.5586748  50.0839710
  68.1717014  73.0951405  50.9382629  38.1737542  77.1287870  61.5427399
  37.7282596  76.2822342  61.5093327  38.4010196  77.3159504  60.6319427
  77.4983931  25.2174783  18.2293308  77.9098368  24.6024680  17.6221168
  77.6563644  26.0784125  17.8419423  32.9252195  58.9379597  56.7976618
  32.9682207  59.8843050  56.9348192  33.3891559  58.5659075  57.5477076
  15.8495224  17.5941837  13.4821177  16.6648149  17.9701424  13.1501770
  15.2432740  18.3338737  13.5215318  52.8310919  54.1784716  62.8296185
  52.2645187  54.5739937  63.4920263  52.4158859  54.4000149  61.9960976
  83.3199978  18.9194059  17.6458502  82.8270435  18.7222219  16.8493879
  82.7619076  19.5295310  18.1280577  40.9686899  46.2525034  58.7891865
  40.9707117  46.6897488  59.6406841  40.0414562  46.1492348  58.5751772
   2.9974219  30.4082203   4.2128921   2.3784511  31.0355043   3.8392317
   2.4460550  29.7162700   4.5781738  62.4480295   0.7028237   4.1640830
  62.9671335   0.2074937   4.7976533  63.0593586   0.8978507   3.4538200
   6.5688175  44.3828297   1.6261920   6.0545176  45.1094675   1.2744449
   5.9384644  43.6694241   1.7258738  77.0633507  46.9984198  17.2256041
  77.2179794  46.8010569  18.1493843  77.5322247  46.3112402  16.7521322
  24.3833375  55.2738428  60.7828999  24.0767455  55.9024382  60.1293707
  24.0587378  55.6165504  61.6156149   3.7604019   2.0054713  22.1759963
   3.2309726   2.4810022  22.8161573   4.2643535   1.3813627  22.6982546
  29.2215466  57.0649529  65.9094381  29.8020339  56.5683222  66.4861774
  29.4638419  57.9793882  66.0554743  43.7981319  80.8005238  66.6423416
  44.0650606  81.0057831  65.7463217  44.5523739  80.3472805  67.0190716
  20.5519342  32.9567909  21.3196087  21.5051126  33.0050468  21.3927794
  20.3976536  32.3458266  20.5990863  27.2796106  38.5649586   2.5427616
  26.7682362  39.3409348   2.3134476  27.8974175  38.8726449   3.2059938
  54.7120667  43.9170265  65.8092022  53.8628006  44.2866564  65.5676413
  55.3480673  44.4369841  65.3178978  29.1132021  60.2269793  67.0408487
  29.9888206  60.0855160  67.4007273  28.7927604  61.0087299  67.4907541
  13.4787226  14.4725704  23.8533902  13.3695090  15.1039338  23.1422758
  12.6249838  14.0462685  23.9284134  38.1878924  51.8637657  52.2599268
  38.3883476  52.6744604  52.7277136  38.2481885  52.1001482  51.3343334
  30.4257941  51.7412806  54.5915794  30.0881219  52.1709585  55.3774452
  30.2580500  52.3661280  53.8861322  76.1928701  26.4969707   4.2081979
  76.8435574  26.3103509   4.8849651  75.6892252  25.6867266   4.1302481
   4.2763725   5.6852502   7.6114285   4.9086651   5.9061372   6.9275814
   3.7509847   4.9801880   7.2331607  42.9081631  69.0257072  48.6544085
  42.3884392  68.8262129  49.4330788  43.5941792  69.6146107  48.9687443
  32.5176096  19.8693514  19.5119405  32.7968812  19.0002084  19.7997439
  31.8763971  20.1441312  20.1673603  80.1020622  13.5003722   0.4833483
  80.6388664  13.6450267   1.2625468  79.5621300  12.7408648   0.7020920
  20.6351852   3.0913079  34.2534518  19.7018695   3.1255957  34.0437365
  20.8282518   2.1573101  34.3347216  39.4638991  62.0845222  69.3725777
  39.4795299  62.8767300  68.8355494  40.3865290  61.8809175  69.5259809
   8.6182845  34.4017386   6.1931056   8.5739750  34.7503281   5.3027385
   8.8013637  35.1653647   6.7404532  34.9969363  35.4511046   6.7874187
  34.3776798  34.8698092   7.2288376  34.4579101  36.1712623   6.4602208
   3.3362150  51.6203356   8.5320449   3.8152125  52.3610497   8.1603807
   3.2178313  51.8498564   9.4537485  47.2373772  74.3353176  57.1928072
  48.1654119  74.1025686  57.1643829  46.8288136  73.7714911  56.5359926
  67.1411276  10.5214930  53.7753391  66.7569351  11.3294792  53.4350634
  68.0811071  10.6212068  53.6245728  73.9274073  67.6483727  62.1899891
  74.2602587  66.7645073  62.3456478  74.6178341  68.2252932  62.5166464
  45.3131771  54.4864750  52.0556974  44.5159721  54.2698193  52.5391817
  45.6465864  55.2746582  52.4844599  27.5543904   8.4954989   0.6345039
  27.6049256   9.2677563   1.1977947  26.6779685   8.5351992   0.2517008
  63.3927917   5.1813352  58.8822651  64.0645695   5.5549878  58.3118868
  63.8158178   5.1138967  59.7382641  67.4124718  10.9018123  64.0731430
  68.2430696  10.6048524  64.4448280  67.0026636  11.4067292  64.7755337
  26.5681481  40.8532667  11.6794574  25.9831119  41.6078711  11.7467833
  26.0868001  40.2242184  11.1420226  21.0801435  41.2520933  26.9739103
  21.0319686  41.8740416  26.2478995  20.1942444  40.8963728  27.0437431
   3.9810255  80.0077915  30.2249289   4.6132666  80.0448036  29.5072007
   3.1283998  79.9714422  29.7914100  64.9935818  60.5952501  53.9491844
  64.4956875  60.7663631  53.1497717  65.8718491  60.3717136  53.6411142
  22.2225952  33.5616851  12.8959811  23.1623554  33.5449743  12.7148700
  21.9133258  32.6935768  12.6371932  45.3859138  79.8690653  62.1671104
  45.0598812  78.9958620  61.9492722  46.3328838  79.7572231  62.2505617
  67.3017883  54.7818661  41.3883114  67.6484871  55.6737185  41.3630867
  68.0480909  54.2281961  41.1587048  30.9079123  44.5893097  10.3342581
  30.3532672  44.8010206   9.5834070  30.5776691  43.7466812  10.6459522
  78.6989641  35.3236794   5.1006460  79.0023279  34.4340730   4.9195269
  78.0879974  35.5177665   4.3898138  27.7642035  72.4312305  45.3501797
  28.3946347  72.3227692  46.0622358  28.2811165  72.7791262  44.6235466
  57.8802872  31.9865060  15.7223570  58.3572197  32.8161979  15.7417786
  58.3259964  31.4388514  16.3686156  19.7569798   0.0989119  67.2682238
  18.8690327   0.0953452  66.9107771  20.3238247   0.0070158  66.5024090
  15.6944740  17.0982218   4.1112956  16.0883641  16.3472688   3.6672765
  14.7512949  16.9617581   4.0217248  69.5257473  77.3692656  54.1393185
  70.3120661  77.8431559  54.4101620  69.2094612  76.9522476  54.9407482
   1.7767999   9.4272012  66.4381456   1.7206782  10.2225482  65.9085178
   1.8298416   9.7433019  67.3400879  74.2434072  18.8047934  64.4996834
  74.4570637  18.2114530  63.7795925  73.3030510  18.9600706  64.4111061
  59.8011589  76.0367680  69.7670317  60.7524967  76.1166525  69.8363304
  59.5207310  76.8575954  69.3622684  80.5203819  77.9951859   8.5066468
  80.9301567  77.1486759   8.6848158  80.2379894  77.9372025   7.5938910
  13.9231765  46.0480499   4.8240274  13.3518994  46.7468166   5.1427698
  13.3238804  45.3941488   4.4641739   9.2585653   6.5168083  12.3535895
   9.6118927   6.2601501  11.5018165   8.4289986   6.9481486  12.1486580
  25.0426745  12.5701785   0.3447828  24.3092155  12.0245612   0.6286330
  25.4037213  12.9271615   1.1562261  11.1383688  33.3992434  25.0099277
  10.3500974  33.2797647  25.5396295  10.8173096  33.7461782  24.1775870
  60.1823139   0.8298528  56.3480139  59.7985125  -0.0207743  56.1350346
  61.1204243   0.7138369  56.1972809  32.9625940  43.1817675   2.6402900
  32.2985172  42.7007437   3.1341025  32.5452280  43.3721113   1.8001680
  14.0176988  26.2852216   1.6339812  13.3157349  26.8513250   1.9549294
  14.8090863  26.6245103   2.0520967  38.3874822  33.8040423   0.3264137
  37.7339864  33.1334734   0.1276377  39.0564060  33.6943746  -0.3494168
  39.9451637  71.6302586  68.6976862  40.0327969  71.6151047  69.6507454
  40.7208872  71.1691856  68.3784771  15.9857821  10.5574560  11.0217559
  15.4829192   9.7504663  11.1318874  15.7064891  11.1147225  11.7481732
  68.8797808  78.5661459  65.3123951  68.3669519  77.7611351  65.3844690
  69.0652561  78.8138866  66.2181854  21.4040661  34.8124790   1.7910467
  21.5544128  35.7484174   1.6582023  22.1229935  34.5324516   2.3575795
  85.1244164  25.8451915  16.7738461  84.3474483  26.3952112  16.8740022
  85.8405495  26.4651322  16.6357613  11.3723552  12.1814501   0.7856696
  11.7520583  12.6124394   1.5513766  10.5715311  11.7723656   1.1136344
  20.9380245  78.3242798  47.0114279  20.4512501  79.0886021  47.3198032
  21.8387985  78.6348915  46.9199991  49.3130112  71.9540691  66.1569500
  48.9611959  72.6283598  66.7381477  49.2343140  71.1418056  66.6572189
  30.4538345  72.9071903  68.2727909  30.4510117  72.0262718  68.6472321
  29.5416117  73.0677223  68.0313110  31.2864280  47.7526569  11.6438913
  31.5113950  46.8927383  11.9990802  32.0007634  47.9568529  11.0403502
  18.5569394  25.2131462  19.5185375  18.5703087  25.4148769  20.4541445
  18.6362088  26.0647488  19.0887475  84.9076748  27.8916931  42.5569344
  85.3356743  27.4948335  41.7982864  85.5425739  28.5290623  42.8838968
  39.2349982  47.3529530  68.2463884  39.8271847  46.6061926  68.3352423
  39.7938156  48.0664635  67.9383945  21.9198227  25.1970434   5.6960088
  21.3585734  24.4822311   5.3955501  22.8052759  24.8345709   5.6673914
  28.7289643  60.4790878   6.7062253  28.5749602  61.3185549   6.2728590
  28.0012202  59.9259043   6.4223033  56.8303156   3.1732631  52.1293974
  56.0224199   3.5329962  52.4956274  57.3013020   2.8236300  52.8858137
  22.8841019  37.4333119   9.4071555  22.6011896  37.9845953  10.1367307
  22.7543306  36.5377831   9.7192764  46.3781023  49.5869303  48.4256268
  45.4656029  49.8578024  48.5266590  46.5145254  48.9414454  49.1191483
  28.9924049  36.0288143   2.6941404  28.6365914  35.3321123   2.1425638
  28.4822464  36.8040514   2.4596722   4.2101118  72.2281551  49.4159842
   4.4789723  72.4869108  48.5345173   4.6527702  71.3927984  49.5658731
  29.5658922  77.0534801  62.5665092  29.0338087  77.7678299  62.9169750
  28.9981985  76.2845087  62.6178598  74.3850470  60.9987497  22.4531412
  74.5670843  61.3318682  23.3318472  74.7619438  60.1188898  22.4477077
  75.7814884  20.6662393  62.7226877  75.2886438  19.9722600  63.1605577
  75.2708578  21.4599657  62.8823376  80.1141739  19.2153049  49.6773672
  80.0130081  19.9790478  50.2454329  79.5854759  18.5349691  50.0943232
  65.8678341   8.1511253  52.5711679  66.4678288   8.2028627  51.8271542
  66.0698223   8.9256722  53.0960560  55.8832169  79.1087866  62.2334337
  56.6993141  78.7625170  61.8724489  56.0565710  79.2030001  63.1700754
  10.5453682  36.3682246   8.9433753  11.3525736  36.2883162   9.4515735
  10.8140683  36.8023872   8.1337237   5.2317387  39.1410279  19.7645795
   4.9359354  38.3037710  20.1219797   4.4619778  39.4975352  19.3211818
  85.9890556   7.8355891  51.7225981  85.6209946   7.6354539  50.8619547
  85.3441048   8.4134829  52.1304131  77.1466112   5.0719285  63.9815426
  76.2369633   5.2535415  64.2177343  77.2270918   5.3845882  63.0804348
  72.5085926  27.4944544   3.5350907  72.5414801  27.4007392   2.5830573
  72.5368261  26.5964508   3.8652742  22.2755098  39.4085360  11.1502051
  23.2066488  39.6274185  11.1140847  21.8291759  40.2547407  11.1192727
  67.1652603  74.4084978  59.2355537  67.9711056  74.8646212  59.4780254
  66.4642668  75.0065184  59.4948006  66.2508821   5.3373826  68.4549999
  67.1089554   5.1294154  68.8247108  66.3552952   6.2143427  68.0858517
  47.0617867  70.3294230  64.6454954  46.5941334  70.9120226  65.2439165
  47.3385906  70.8969927  63.9261389  59.2492962  36.8691826  14.0634024
  58.8392782  37.0309758  14.9130726  58.6259985  37.2182679  13.4263241
  46.6809273  76.2653255  63.2561970  46.4414310  77.0713854  63.7135220
  45.9566879  76.1096478  62.6500034  11.8200374  40.4524660  15.0545025
  12.5206316  40.3766918  15.7023120  11.7570579  41.3912439  14.8785245
  45.6106997  68.7538242  67.1679401  45.4233217  69.2496157  66.3708735
  44.7585773  68.4196663  67.4480391  25.2758861  66.4887476  66.3674688
  26.0467553  66.2288380  65.8630514  24.5505834  66.0192776  65.9554434
  57.0432854  73.3138657  51.1042976  57.1808767  72.9200363  50.2427864
  56.1085033  73.1975889  51.2742758  67.9066563  64.8697996  65.0946617
  67.7053499  64.3916416  64.2902517  68.6132908  65.4665518  64.8481035
  57.5430775  67.6964045  61.0214901  56.6042566  67.7869749  60.8582544
  57.8978062  68.5728073  60.8720970  12.1053243  15.5930614  28.0113864
  12.1443510  16.3194406  27.3892283  11.1821532  15.5386233  28.2584143
  78.5348558  33.9511275   7.4818313  77.9876804  33.5743618   6.7927164
  79.0278292  34.6448970   7.0437759  14.4171143  47.3249054  31.0662770
  15.0424314  47.7385664  30.4712176  13.6510086  47.8983784  31.0451412
  44.0678644  59.3689156  63.2019186  44.8354769  58.8445950  63.4301710
  44.2862988  59.7571278  62.3546839   6.8347007  32.4302864   6.7042351
   7.0147908  32.1852708   7.6118511   7.5298339  33.0492330   6.4807975
  46.3757324  50.5894232  54.0770388  45.7290840  50.8157682  54.7455025
  45.9649229  50.8434772  53.2506466  12.7845418  13.6549520   3.2136786
  12.6145005  14.4027936   3.7864357  13.6026335  13.8754797   2.7683407
  80.2305222  31.5006089  62.9427195  80.0281525  32.3046160  63.4211063
  81.1481094  31.3232994  63.1496429   3.4414303  41.5036964  18.6086571
   4.3191254  41.8598413  18.4706581   3.0512089  42.0772123  19.2682314
  44.6053839  30.1905942  10.1772249  44.2396021  29.8564434  10.9962344
  44.7301769  29.4115758   9.6352011  53.5599279  77.3378849  53.3339691
  54.0523481  78.1549740  53.4121847  53.6473370  76.9224977  54.1918993
  50.0316334  62.5000286  68.0863953  50.8485508  62.4255562  67.5931072
  49.8941135  63.4425497  68.1811190  47.3307562  55.2023220  70.0510406
  47.2446156  54.6435976  70.8234644  47.5700903  54.6008968  69.3458891
  57.2236300  78.5616636  51.1110592  56.7111254  78.5816431  50.3028727
  56.9062233  77.7880430  51.5768862  55.6279230  45.2055168   5.3519326
  56.2312841  45.8576632   4.9957186  56.1947775  44.5009899   5.6658632
  38.1811094  44.8282766   4.4551674  38.5575390  44.1843271   3.8552806
  37.4305487  44.3811703   4.8463050  20.7162166  20.4225850  22.2655487
  20.4777122  21.2937140  22.5825381  21.2594891  20.0545669  22.9624343
  61.0964060  66.4114475  52.8945065  60.7076454  67.2854900  52.8606510
  61.2876940  66.2701464  53.8216925  10.7394159  32.6061773   5.2007085
  11.5603101  32.9210567   5.5791467  10.0907874  33.2621455   5.4560852
  11.2395656  39.4608545   1.7233178  10.3993154  39.0153646   1.6149153
  11.5992332  39.5125842   0.8377699  69.9209261  67.0410299  57.1691704
  70.5233860  66.5637207  57.7396536  70.2038765  66.8184423  56.2822533
  23.9953947  19.6299577   1.2712762  24.2755795  19.2963469   2.1235865
  24.6369886  20.3070211   1.0563905  74.9396038  20.8138061  66.4550304
  74.7500181  20.0976443  65.8488941  74.7666025  21.6078258  65.9492254
   7.9191607  19.4646418  51.5094471   7.1484989  19.9187911  51.8501234
   7.5756967  18.6467505  51.1498356  81.9597912  24.3927050  16.9528139
  82.4274635  23.6269379  16.6194701  82.5939846  24.8331404  17.5185418
   5.1214570   5.7096010  60.1597786   4.3053502   5.3958213  59.7702312
   4.8438674   6.2080806  60.9283447  36.3037157  59.8186922  37.7447224
  35.6755304  60.4759932  37.4454308  36.3005948  59.9011421  38.6983585
  54.2863703  61.1384249  60.6088161  54.9183273  61.4808464  61.2409592
  53.4490108  61.1590099  61.0721064  19.2433870  67.6124191  67.2217274
  19.1261935  67.2247410  68.0890226  19.1252255  66.8817282  66.6147995
  26.8207264  73.3090830  59.8320198  27.0604992  73.0917788  60.7328606
  27.6271915  73.1822205  59.3322659  55.6939602  75.9682560  68.1996822
  54.7477865  76.0754967  68.2970762  56.0084343  75.7985735  69.0876865
  38.9278698  31.2920785   4.3443945  39.2169452  31.2515235   5.2559996
  39.4034076  30.5836225   3.9105910  77.2445059  16.6125560  22.0539737
  76.6454506  16.1983943  21.4328218  77.6149082  15.8837175  22.5517988
  38.5798502  47.6243114  64.1930771  38.7686586  48.5013914  63.8594341
  39.4401288  47.2497988  64.3825388  79.8889875   9.4749308  62.2576523
  79.1196775   8.9090198  62.3220158  80.6279564   8.8971573  62.4482536
   8.7895125   3.3291873  66.4784718   8.4880239   3.2993007  65.5704832
   9.7205985   3.5419253  66.4148045  74.9814320  80.1315880  64.8951626
  75.2523232  80.4749489  64.0437222  74.1031504  80.4879856  65.0287151
  78.5531569  18.1148696   2.6079845  78.4582138  18.2035315   1.6596407
  78.5267782  17.1708584   2.7641177  66.9063997   1.4804427  44.6136045
  67.0714998   2.4147886  44.4872236  67.1291018   1.3197517  45.5305624
  17.3891354  26.8692565   1.1604926  17.5152326  27.7287602   0.7585163
  17.6606226  26.2470746   0.4856459  76.5910864  44.5148230  69.8492527
  76.9333410  44.8151302  69.0072918  76.9488716  43.6330223  69.9524736
  52.0048523  22.6432967   8.9785767  52.8798580  22.2670603   8.8834929
  51.6596985  22.6754165   8.0863500  48.3967257  64.5651960  63.0333185
  48.8206434  64.4062948  63.8766909  47.5750875  64.0766001  63.0824137
  19.0487087  44.3222141  12.6522648  19.9093652  44.4569969  13.0489194
  18.6174953  43.6882782  13.2253337  34.7275877  19.5107460  -0.0906062
  33.8230968  19.2032170  -0.0309872  35.2370358  18.8483822   0.3762648
  81.2467384  23.3018374  23.3539343  80.2948666  23.2464314  23.2695985
  81.4261627  24.2388535  23.4316540  52.4497986  73.2159901  69.5480871
  52.0227528  72.7980089  68.8003206  52.8942585  73.9773655  69.1752672
  10.7839549  23.4865665   5.2449459  10.9091139  23.7385511   4.3300304
  10.1891243  24.1489530   5.5965894  77.9740000   5.6214374  50.7065392
  78.1359720   5.6834859  49.7651863  77.9367208   4.6811372  50.8816910
  32.3646927  27.9413605  17.2327054  32.8943849  27.3796844  16.6668606
  31.5226507  28.0089283  16.7825580  49.4872999  65.0836134  68.1382084
  49.5313549  65.9853840  67.8202438  48.6524439  65.0343561  68.6038494
  65.3215313  79.5641422  47.2641802  64.4340563  79.7548103  46.9604206
  65.1963663  79.0611792  48.0689096   1.2375165  17.1482742  62.4548769
   2.0329157  16.7314517  62.1234703   1.1339253  16.7973590  63.3393908
  45.5214930  67.5786781  54.3170977  45.5720711  67.4475527  53.3702755
  46.0750675  66.8894863  54.6842527  15.2441716  54.8121357  31.6626215
  15.8876586  54.2225218  31.2695456  15.2096760  54.5500088  32.5825858
   4.7813538  22.7517796   4.9729708   5.2421260  23.1998515   5.6823033
   3.8930434  22.6256442   5.3064764  75.2331352  79.9172592  18.1354928
  75.7248688  80.5264187  17.5847161  75.6379032  79.9952507  18.9993846
  30.2418303  18.8003898  22.7765656  30.6136584  17.9641020  22.4962115
  29.5479202  18.5601676  23.3905792  52.7469540  64.6217155  61.6129971
  52.3398256  63.8138866  61.9258690  52.0138741  65.2215433  61.4750528
  25.9361458  33.7709069  17.5298810  26.0039186  34.6180320  17.9703569
  26.1151934  33.1287789  18.2167912  25.4801965  36.6805792   3.2844463
  24.9226642  36.7709732   2.5116470  26.2226176  37.2600102   3.1132680
   0.5191416   3.6694750  58.8787031   1.1016251   2.9392570  59.0878105
   0.8849958   4.0460843  58.0783606  52.5437212  47.6910400  58.2466269
  51.9061279  47.0051861  58.0483580  52.3438454  48.3908510  57.6248980
  45.7926226  27.2148204  65.8994961  45.5275917  28.0285978  66.3281679
  45.0192595  26.6532803  65.9525537  80.7863331  19.3612695  39.6971536
  80.8614731  18.4561324  39.9993324  80.7094002  19.8763037  40.5003023
  16.6868973  27.3946714   6.2361783  16.7751718  26.6589427   5.6302559
  17.5834036  27.5882435   6.5101111  42.9837561  21.6870379   2.3644294
  43.4135056  21.8948507   1.5347540  43.6664104  21.8074536   3.0245137
  18.8947904  67.0752621  45.4580688  18.4942603  67.9291630  45.2947664
  18.4744740  66.7628527  46.2592936  68.4821796  16.7111182  65.6327820
  69.4388103  16.6962183  65.6622505  68.2269669  17.2260404  66.3982582
  83.8499069   8.0141479   0.8879985  83.6174583   7.2123438   1.3563004
  83.4439564   8.7154007   1.3975884  63.0047655  55.9848356  55.2074528
  63.6984777  56.4232159  55.7002211  63.3349895  55.9483719  54.3097544
   6.3649225  47.4515152  12.8066278   5.5849284  47.3874378  12.2555065
   6.0497648  47.8378296  13.6237383  38.4139848  65.5688953  58.2498455
  38.0259514  64.7579336  58.5784864  37.7700615  66.2450743  58.4605026
  68.1950283  72.5646877  63.3752251  67.8531170  72.4732590  62.4858618
  67.9483747  73.4518528  63.6366320  11.1207116  20.0126290   8.4943217
  11.6247046  20.4107308   7.7845764  10.5196750  20.7018399   8.7771231
  74.5820093   4.7627169  68.8988447  74.5667887   4.5422825  67.9675007
  75.4781866   4.5716512  69.1755867  44.3155479  47.9615450  59.9980307
  43.9198017  47.0938921  59.9156141  43.6172724  48.5103607  60.3550243
  35.4925299  34.1209674  11.9972599  34.9135709  33.9943624  12.7489293
  36.1975765  33.4870028  12.1285272  59.9946070  40.4751921  54.3566751
  60.4142666  41.1320543  54.9122334  60.6692648  40.2310324  53.7230682
  65.1633549   1.9814405  62.1591806  64.5156240   2.6838964  62.2160435
  64.6474314   1.1929795  61.9907045  72.4193525  75.0990820  57.9393530
  72.6578856  75.6594467  57.2008944  72.2843361  74.2349291  57.5504494
  15.6364572  20.3262806  15.6004024  15.5367386  20.7987189  16.4268947
  15.7341325  19.4097757  15.8586884  39.5290160  57.2166967  69.4281244
  39.0495968  57.8199387  68.8602448  40.2242994  57.7508068  69.8122358
   4.2965519   2.6226410  64.0161180   4.4754267   1.8541142  64.5579672
   3.8963801   2.2680393  63.2221699  65.6627226   5.9462792  57.5363922
  65.5841303   6.0283178  56.5859604  66.4221859   5.3782046  57.6657724
  51.1986637  75.6589651  65.2812815  51.7205095  75.7167816  64.4809246
  50.4989624  76.3003778  65.1578474  80.4350281   0.7069278  68.3515310
  79.5224905   0.4189182  68.3278751  80.9178638   0.0095458  67.9079580
  57.1197844  20.8605289   3.8424471  56.7620277  19.9822664   3.9724234
  57.3083544  20.9060383   2.9051089  83.0118561  34.0185595   7.0128471
  82.3946571  34.7362995   7.1548325  82.7107716  33.3242869   7.5989944
  78.1261301  24.6748805  68.1655455  78.1823158  23.7910080  67.8024435
  77.5714540  24.5808649  68.9399672  73.6186886   0.9118426  60.7691097
  73.7760019   0.1441800  61.3188171  72.6655626   0.9958550  60.7421398
  14.0620625  56.7718315  16.3536108  14.6992445  56.4291525  15.7268715
  13.5397112  57.3944616  15.8479261  85.2670765  73.5237980  67.4737024
  84.7454262  74.3140507  67.6137543  85.3795910  73.1528473  68.3488989
  60.5748558   8.7255448  62.5469875  60.5119801   8.6027879  61.5997791
  61.2277603   9.4169533  62.6560831   4.3468970  35.9293652   7.2343940
   3.5246873  36.0652709   7.7052784   4.0931338  35.9038234   6.3117975
  64.3118906  73.1761932  62.7768707  63.6390352  73.1736088  62.0960712
  64.1209507  72.4012375  63.3052826  15.4486012  42.0397329  25.8913207
  15.1704335  41.7246628  26.7513132  15.7051325  42.9496765  26.0410833
  13.5776138   3.6380446  53.1328297  13.8270020   3.7227568  52.2125769
  14.3699741   3.3229205  53.5676765  79.6545601  39.9353313   1.7048682
  80.2498055  40.6123304   2.0267273  78.7802362  40.2732468   1.8987663
   2.3401430  46.1654425  24.9300718   1.8553828  45.3403473  24.9514794
   2.2181414  46.4918518  24.0385509  24.9406028   7.5383532  26.6191816
  24.1182446   7.9748070  26.3967657  25.1405621   7.8411990  27.5049186
  16.8887472  14.2262053  51.0483503  17.7516091  14.1151011  50.6491518
  17.0687675  14.3309510  51.9826174  27.2668529  40.7746220  29.3809056
  28.1070352  41.1250639  29.6767378  26.7527890  41.5482044  29.1495275
   5.7659894  28.7754798  57.2051668   5.1253378  28.1358838  57.5161600
   6.4536160  28.2477283  56.7991161  25.3156853  36.4343810  15.5092001
  24.3592215  36.4139891  15.5407202  25.5438495  35.8534527  14.7834635
   3.3524108  14.4215643  51.4436531   4.1859490  14.3448830  51.9079447
   2.9237670  13.5766113  51.5798569  74.7863436  16.5276241  66.5199852
  74.6126747  17.1997190  65.8609295  75.6740856  16.2263346  66.3266659
  54.7745371  73.0486631  55.3517866  54.5503473  72.6686525  56.2012339
  55.0795841  72.3062372  54.8302698  77.2223806  46.8265820  58.5402012
  77.5569773  46.7354012  57.6480341  77.9812431  46.6587114  59.0989304
  25.4574180  28.9997864   3.7340066  24.8928881  28.9448762   2.9629546
  25.4723215  29.9312210   3.9540982  57.4910593  72.1106815  48.5445595
  57.4122858  72.9477358  48.0869913  58.4152651  71.8768167  48.4586620
  83.0087852  59.6189165   1.4940816  82.6987076  60.2431631   2.1501356
  83.2884789  60.1637268   0.7584293  71.6977596  15.0244498  64.3210649
  70.9742403  14.4889832  64.6466875  72.2224283  14.4226146  63.7931013
  32.0181513  37.8281212   6.9651389  32.5677323  38.4365439   6.4711618
  31.4640951  37.4143982   6.3032556  18.7152791  28.7328625   3.3695838
  19.2923105  28.7234044   2.6059234  19.2484963  28.3706355   4.0771878
  16.1271167  39.8090577  15.4813015  15.6716645  39.1049862  15.0196970
  16.8708348  39.3777108  15.9020782  51.7453718  33.8274050   4.3924975
  50.9075689  34.2464566   4.5892593  51.7089748  33.6487579   3.4528208
  85.8894444  53.3714390  34.7019458  85.1696587  53.8987255  34.3553734
  85.5243397  52.9494333  35.4796624  42.5985479  32.3584294   6.8241072
  42.4454451  32.2567797   5.8847147  42.5538063  31.4677453   7.1718299
  12.0113063  70.7283020  17.2580183  12.0128369  70.1511335  16.4944029
  11.1184454  71.0710573  17.2973907  18.7438643  61.6697884   5.4212785
  18.0809736  61.6318846   6.1107498  18.9604902  62.5992823   5.3481358
  37.6366949  36.4938712   3.5359275  38.2834435  35.7895827   3.4920433
  36.8816900  36.1560893   3.0541548  49.3447256  77.2634220  64.0580988
  48.4533596  76.9149828  64.0411806  49.6114254  77.2837543  63.1390285
  71.0189199  32.2305632  63.7991810  71.1616802  32.4107695  64.7283649
  71.8821335  32.3363400  63.3993053  52.8145123  66.6336679  36.4275336
  52.3013401  65.8258724  36.4089012  53.6026669  66.4283848  35.9246469
   9.1951442  43.2749271   8.4211713   8.9271021  42.4230957   8.0765480
  10.1398027  43.3078623   8.2702827  61.3904572  79.8661184  61.3332558
  61.5031767  79.9738741  60.3888464  62.2807503  79.7692156  61.6712189
  28.8159132  58.9052677   3.8258564  28.9667344  58.7924767   2.8873670
  27.9761481  59.3614006   3.8803667   6.9523495  11.6628397  64.2443562
   7.0366538  12.5792158  64.5077562   7.7460164  11.2439430  64.5773029
  76.4314127  22.3344469  36.7944741  76.2280989  21.9507623  37.6475167
  77.3807430  22.2443891  36.7114758  56.4166212  12.7035701  65.3769445
  57.3642540  12.5902259  65.3035831  56.1501598  12.0683181  66.0415363
  39.1773534  38.8404846   3.1234649  38.5035992  39.4380379   3.4478363
  38.7153268  38.0149221   2.9778424   3.9673474   3.0094352  68.1709528
   4.8913687   2.7686074  68.2374239   3.9406639   3.6672384  67.4761009
  62.8864241   2.8438944  41.4087725  62.6752901   2.1982118  40.7344198
  63.8431740   2.8666234  41.4274263  63.8821316  77.8116131  55.7920885
  63.8452959  77.0878267  56.4173937  63.3882189  77.4987316  55.0342035
  33.2143497  35.1036954   3.0882224  33.8942814  34.4549060   2.9065728
  33.6091638  35.6901574   3.7335247  68.2378578  76.6247940  56.7255735
  67.5168896  76.5162373  57.3457766  68.8687849  77.1779680  57.1861792
   0.7305212  16.6610837  29.3106389   1.2651861  17.2003675  28.7279391
   1.2666869  16.5532017  30.0962090  63.9205265  65.6957865   8.8764405
  64.6734238  66.1903000   8.5526538  63.4438801  66.3177872   9.4261289
  16.4372027  37.3847389   1.1342794  15.7468760  37.9623675   0.8086637
  16.1765146  36.5114021   0.8417764  82.6909637  37.2540689   2.4406585
  82.9058743  37.8115916   3.1884643  82.2928429  36.4751315   2.8292289
   4.7335580  23.6044836   0.7054941   5.4989809  24.1192698   0.4498478
   4.4274673  24.0156889   1.5138566  19.8174512   6.9498634  53.4394407
  19.5603836   6.4308089  54.2014980  19.1662931   6.7339784  52.7718973
  47.2800684  60.2919722   3.8875288  46.3428831  60.1429129   4.0127939
  47.4356461  60.0786734   2.9674569  75.0949430   6.4518797  58.7397337
  74.5603418   7.1641296  58.3888292  74.5259142   5.6832153  58.6997843
  86.1232247  23.5205722  65.9072542  85.4737162  22.9771662  66.3534403
  85.7918504  23.6044192  65.0131702  62.0879364  40.1700687   2.9146644
  62.9449224  40.5447435   2.7111331  62.1122694  40.0154972   3.8589883
  18.4084928   1.1031317  50.7035923  17.5235534   1.4629598  50.6432819
  18.6972058   1.0236553  49.7944355  49.5521545  63.0281448   5.3945911
  50.1590204  63.1874561   6.1174750  48.7675667  62.6748943   5.8139622
  31.3745594  80.0395966   8.2807088  31.7114973  79.5389032   7.5377357
  31.9078112  80.8343697   8.2955098   0.8306538  25.0754070  42.1268606
   1.1722459  24.4115400  41.5278387   1.5205923  25.7375431  42.1692085
   3.4366661  15.7662344  61.8073702   4.1606128  15.4481697  61.2679529
   3.2231477  15.0296462  62.3801517   9.1018665  54.8176622  21.1554646
   9.6239984  54.5400715  20.4027677   9.5916647  54.5037413  21.9155860
  71.3616991  74.2411661  67.2841215  71.6408539  75.1556969  67.2400570
  71.7673016  73.8298941  66.5208530  73.3919287  44.6508646   8.3666325
  72.4848175  44.4366789   8.1486803  73.4548855  45.5958509   8.2278323
  57.2466469  51.2014246   4.0324867  56.6848755  50.9845352   4.7765309
  57.2469282  52.1581888   4.0034708  56.2985849  38.9096236   3.0350339
  56.4791441  39.8460364   3.1172547  57.0642424  38.5569811   2.5815535
   0.4976391   0.6233986  18.0082035  -0.3971917   0.6651991  18.3454895
   0.9387684  -0.0075534  18.5770059  34.3622184   5.7635742  39.1340685
  35.2215981   6.1335635  38.9320612  34.5552683   4.9475417  39.5956469
  65.3122759  73.8738632  56.2128162  65.9924889  74.4278097  55.8298159
  65.7357359  73.4600115  56.9649076  24.6634817  22.0853424  40.0043774
  25.4258990  21.5406275  39.8088384  25.0237322  22.9617095  40.1401567
  21.7114472  21.5804815  59.3014622  22.2157788  21.2426543  58.5613585
  22.3715210  21.9178557  59.9070311  30.3527999   9.1433769  46.4967442
  30.0439644   8.9415950  47.3799992  31.2127018   9.5425010  46.6290331
  42.1132946  57.8723621   3.7266949  41.7868614  58.7567568   3.5607907
  41.3300085  57.3222685   3.7173566  12.8516591   3.8180420  39.9701571
  12.7163386   3.0148739  39.4673252  12.1718204   4.4144115  39.6564770
  16.8638504  20.1228786  35.2421999  16.0981286  19.8024881  34.7654891
  16.5973365  20.1076913  36.1614227  73.9864922  72.7474356  48.0287218
  74.5592022  72.2381973  48.6022282  74.5526838  73.4311199  47.6706314
  84.2879581  72.3556089  35.4412127  83.4815216  72.7816820  35.7316279
  84.2266846  71.4654064  35.7876515  25.7261181  46.2546825   1.7045107
  26.0579777  47.1494102   1.6299538  26.4453888  45.7056522   1.3923475
  57.7125025  46.5056610   3.5304886  56.8053865  46.6961527   3.2915530
  58.1319857  47.3644924   3.5821331  77.6018047   0.1487887  67.9080486
  78.0484247   0.4358698  67.1115875  77.3920345   0.9600762  68.3706903
  32.2578049  18.7637770  58.0670786  32.3884821  17.8467202  57.8259087
  31.3103914  18.8914776  58.0187607  14.8944676   2.1520109  68.2869625
  14.2069292   1.7644966  67.7453423  15.1493299   1.4517587  68.8877344
  68.5176706  75.8248520  52.1944857  69.2254162  75.4985905  51.6387177
  68.9229679  76.5171146  52.7167320  67.8651714  77.3266792  47.4938440
  67.6315880  77.9474163  48.1840324  67.8032303  76.4682484  47.9127598
  84.9924946  71.7543840  45.3865957  85.8106899  72.1337366  45.7073402
  85.1520061  71.5920973  44.4568348  27.9828095   9.6842438  41.6272116
  28.7715578   9.3145263  41.2304544  28.1983852  10.6049645  41.7756414
  57.5812960   7.2103077  51.3491583  57.8377247   6.2981433  51.2133980
  57.6903391   7.6200289  50.4909801  22.0284295  34.3769979  59.3681288
  21.3016772  34.2133379  58.7670660  21.8216038  35.2208376  59.7698641
  62.0356655  53.8897562  16.9534910  61.9351768  52.9424858  16.8596041
  62.9774475  54.0399933  16.8715692  69.9691200  16.0406244  45.0122213
  69.7899771  16.7274570  45.6544065  69.1070557  15.6872380  44.7926950
  11.8876183  13.7589478  50.3245735  12.5624943  13.4024358  50.9022188
  12.1492100  14.6688592  50.1836395  82.9777718  77.5830078  59.6827459
  82.4125385  77.3698997  60.4252672  83.3418274  78.4418011  59.8976040
   4.4713697  22.6807451  50.8965445   3.5218155  22.7989507  50.8719206
   4.6100795  21.7890191  50.5774593  67.9765654  45.6473255   0.2449901
  67.7438641  46.2701178   0.9336198  67.2113705  45.6288338  -0.3297857
  48.5630989  61.1246014  22.3229432  47.6131439  61.0077477  22.3356891
  48.9042282  60.2809906  22.0259905  41.5718031  30.8629727  16.1830437
  42.1470451  30.9164977  15.4198527  41.9006348  31.5364003  16.7785251
   9.7785485  11.6907346  62.9874182  10.5775058  11.9545424  62.5310135
   9.6356589  10.7841384  62.7155781  60.0156975  56.6249514   9.1065466
  60.0983906  55.9107018   8.4746933  60.3664494  56.2656307   9.9214667
  20.2028012   3.1953773  46.7173290  20.2589178   2.4743447  46.0902739
  20.4034615   3.9768571  46.2022972   7.3583704  33.8754964  25.0172496
   7.7678883  33.1878138  25.5422425   7.9947215  34.0605402  24.3265629
   6.0989475  18.5141551  61.7638826   5.9996587  18.7715459  62.6804638
   6.9711602  18.8247836  61.5210104  21.5475965   3.4301895  52.7305460
  21.1107874   3.7882146  51.9577312  22.4249244   3.8123369  52.7083588
  24.8396635   1.0975626  50.6534338  24.4190001   0.8017896  49.8461008
  24.3249273   0.6952263  51.3530111   8.9111012  11.2759602  54.9737024
   8.8001323  11.7439497  55.8012915   9.5331579  11.8090498  54.4786358
  48.0949163  49.8948002  12.5779235  48.2659006  50.0431252  11.6478717
  48.0131912  50.7731438  12.9494846  43.8907671  64.4865465   7.8414530
  44.4636774  65.1690912   8.1909430  43.0985785  64.9525404   7.5740117
   8.1130940  26.2893510  56.8859148   8.9528418  26.4206457  56.4456701
   8.1925482  26.7793369  57.7043486  14.8740399  20.2990770  67.0796537
  15.7953477  20.1207471  66.8909168  14.6103394  19.5951462  67.6722527
  12.1860886   7.5537789  55.5433464  12.9622245   7.1743900  55.9555435
  11.4654899   6.9904143  55.8254576   6.8472981  -0.0506296  61.1202431
   6.4206553   0.7824881  60.9199381   7.7090490   0.0166259  60.7090330
   6.6621691  19.2846525  64.6754360   6.0899299  19.9550521  65.0487137
   7.3339528  19.7781122  64.2048645  12.8994346  35.6792593  53.9396858
  12.2624743  34.9802732  53.7915850  13.6003554  35.2623510  54.4408131
  58.8121700   3.1224442   3.0955526  58.9671755   2.6470202   3.9117497
  58.2835817   3.8772112   3.3546895  39.7926903  16.4603078   8.8507921
  40.7418156  16.5636814   8.9193940  39.6752310  15.6887543   8.2965899
  20.3908610   9.7752595  53.8121653  20.4948783   8.8798380  53.4902430
  20.8958602   9.7977310  54.6250010  33.1403661   2.4806817  49.5583057
  33.6312604   1.6614771  49.6227884  32.6355362   2.5219619  50.3705072
  66.4878654  74.9195099  63.0504227  66.3006878  75.4650879  62.2865200
  65.9106112  74.1624260  62.9512787  15.9758496  20.6393743  56.4257526
  16.5399027  21.0583758  55.7757425  15.6269681  21.3649869  56.9434452
   9.9247241  35.7747483  57.6827478   9.3072432  36.4451361  57.9752016
   9.4624764  35.3118324  56.9839859  37.4752808  60.0508404  -0.0500442
  37.8731537  60.8655453   0.2568538  36.5662575  60.1020813   0.2453931
  19.4721997  32.4112463  55.3334332  19.2853367  32.7454710  54.4561577
  20.3936386  32.1541452  55.3005409   0.8077562  31.7254162  62.9267454
   0.8404237  32.5247288  62.4011374   1.7110556  31.5898752  63.2129478
  27.2629333  17.1687782  56.3108873  26.6194153  17.4822867  55.6754160
  26.9531274  16.2966549  56.5551329   7.2468501  37.0633340  51.8969488
   7.4753225  36.9752431  52.8222990   8.0767798  36.9506001  51.4335489
  25.1622891   4.6393862  49.8751783  24.6734500   3.9639026  49.4050837
  25.9643412   4.2007950  50.1590538  39.2861819  42.8098297   2.3417485
  39.1108775  43.5791016   1.7997926  39.2828155  42.0771217   1.7258266
  60.1444006  45.4114628   2.3563139  60.0151587  44.6166420   1.8388373
  59.2607403  45.7504272   2.4994123   4.9939060  74.9486065  39.6412730
   4.4680861  74.1531610  39.5575166   5.5986905  74.9150801  38.9000964
  30.2011538  44.0047264  16.4490438  31.1189961  43.8973808  16.6985953
  29.7349668  44.0881777  17.2808719  15.3068304  28.5373068  37.4821663
  15.0137210  27.7182293  37.0828748  15.6589770  29.0469289  36.7524338
  13.0585420  12.2508669  66.1607027  13.2486665  13.1773782  66.0135317
  13.4739292  11.8012846  65.4247952  43.6807346   1.8680882  51.2339687
  44.1332626   2.0811215  50.4178429  42.7579308   2.0422330  51.0486603
  19.3904579   2.3532638  58.4477663  18.6310852   2.7558729  58.8690615
  20.0218749   3.0672225  58.3594084   5.1161599   7.7486759  50.3162718
   5.6823343   8.4545833  50.0042295   5.6484300   7.2817183  50.9603786
  59.5386076  74.6849632  66.7420769  59.8057270  74.9355507  67.6264334
  60.3468895  74.7149229  66.2302017  35.2421355  31.4287066  61.1303663
  35.4152966  32.3501301  60.9374189  34.7249532  31.1212039  60.3859234
  18.0182433  22.3739386  59.4874811  17.6954389  22.2612453  60.3815317
  18.0952168  21.4828396  59.1465235  70.0686598  47.0232534   4.7382706
  70.6336260  46.7987490   3.9989173  69.3651581  47.5451279   4.3523151
   4.3180740  17.5193083  64.0969515   4.3502253  18.4306693  63.8060570
   4.3659103  17.0081913  63.2890511  46.3044596  49.5779085  15.0018406
  47.0482302  49.8633194  15.5324745  46.7011738  49.1307163  14.2542636
  73.5846901  24.4701076  69.7042894  73.3997250  25.2728605  70.1917410
  72.8795958  23.8718605  69.9516344  79.6791697   5.0328273  55.8969402
  79.0231800   5.6229848  56.2679195  80.5141735   5.4735309  56.0543728
  28.7814355  16.5911245  38.7252212  29.0016747  16.1027610  39.5184588
  29.5702982  17.0961773  38.5281181  31.1432242  32.6117349  58.8751316
  31.7092466  33.3482671  59.1061544  31.5447855  31.8568897  59.3054676
  27.3857856  14.8532283  65.8330107  28.2158518  14.9620938  65.3689289
  27.0925546  15.7466304  66.0121155  15.4239726  39.4787812  58.5334015
  15.6008029  38.6422563  58.9637375  15.3026330  40.0976372  59.2534876
  29.6751952   0.9412681  52.8954268  28.7469172   1.0753792  52.7042580
  29.8652458   1.5566435  53.6035395  56.0471249  75.7536459   4.4926062
  56.3488531  75.8421040   3.5885221  56.1623144  76.6257477   4.8699644
  37.2138762   7.8020132  12.5283611  36.4189291   7.9213399  12.0086944
  36.9148302   7.8441626  13.4366703  77.7371836  78.1435156  51.3419390
  77.9308367  78.2614326  52.2719002  78.5955429  78.0525541  50.9282017
  31.7866778  13.6320662  69.7381926  31.6868496  14.3150270  69.0749931
  31.5793300  12.8189230  69.2777157  17.5040543  10.4739141  55.8932972
  17.2741330  10.4696321  54.9641323  18.1142795  11.2055743  55.9856653
  10.4549897  14.3776834  65.9043312  10.9694159  13.5755920  65.9951305
  10.8453608  14.8291624  65.1559925  21.0656857  18.8896310  41.2729454
  20.5830431  18.0839849  41.0879517  21.8315816  18.8468373  40.7004023
  73.7755013  80.7111645  44.5203447  72.9542446  80.4730701  44.0901375
  74.1585493  81.3794899  43.9521408   5.5864459  25.3153491  55.4511976
   6.5110898  25.4192185  55.6758690   5.5826920  24.6693420  54.7448730
   2.4286437  10.0850761  48.6110830   2.3726332   9.1819441  48.9232445
   3.2801431  10.1360166  48.1768179  17.2439170  13.4791613  69.1356277
  18.0872893  13.8945746  69.3155909  16.8420565  13.3697724  69.9974728
  45.2430391  53.2503939  20.2457333  44.8128748  52.3957920  20.2166581
  44.8029041  53.7160063  20.9568739  44.1110754  45.0514460   8.7578386
  43.4173250  45.1456451   8.1051004  43.8312054  44.3139744   9.3000925
  17.9904008  22.6623321  54.7429466  18.4058857  21.8266487  54.5302582
  18.5693204  23.3218050  54.3606138  38.2276368   3.4180573  64.0795422
  38.7671709   3.4159470  63.2888889  38.3396077   2.5418454  64.4482517
   1.3882455  16.6461980  52.0612383   2.1241412  16.0445511  51.9484997
   1.6776556  17.2536731  52.7420092  76.0456705  58.1472874  56.3987875
  76.9543552  57.9687595  56.6409779  76.0956573  58.4609127  55.4958105
  58.6133528  76.1390781  39.5528460  59.4677639  75.8870983  39.2025280
  58.2746553  75.3397799  39.9561310  21.5431404  13.5488462  47.9860735
  21.2606359  12.8295493  48.5509062  21.5300560  14.3189740  48.5543728
   5.8273399  14.6065629  52.5726891   6.6949010  14.9275517  52.8187275
   5.9354454  13.6585450  52.4964952  24.0066290  10.1112366  32.7223969
  24.1177511  10.5635500  33.5586357  23.6219001   9.2665327  32.9562569
  38.1879067   3.3084258  58.9638376  39.1165853   3.5396433  58.9457798
  38.0814147   2.6882815  58.2425117  61.2483072  76.6186476  42.4423647
  60.5841351  75.9444809  42.5859165  61.5460539  76.8525743  43.3214903
  12.5637519  31.2902236  62.1860456  11.7574084  31.6920042  61.8626022
  12.3403943  30.9769297  63.0625105  45.8401489  43.2658195   1.5793836
  45.2692223  42.5100946   1.4409928  45.4576015  43.9571333   1.0390399
  78.9453793  69.4163179  44.2560482  79.0460300  69.4086361  45.2079105
  79.7088432  68.9394140  43.9306116  47.0306063  66.2306786  69.0276051
  47.2219658  67.0729971  68.6151505  46.7695379  65.6628132  68.3026171
  76.9625807  23.6681223  58.7906599  77.1918821  23.0501771  59.4847775
  76.0536861  23.4594178  58.5748196  23.2123041   6.7691767  69.7527885
  23.7754321   7.5073308  69.9856949  22.5434661   7.1486783  69.1828156
  27.6465987  49.6787378   0.0085837  27.0688628  49.5118543   0.7532985
  27.4227045  48.9976242  -0.6255954   1.9655029   1.5309471  67.0447731
   2.1216045   0.6039683  67.2252607   2.6228258   1.9906572  67.5671005
  80.3389359  72.0802259  58.7632465  80.6783867  72.6383018  59.4629288
  81.1204529  71.7269325  58.3382177  28.7074399   8.2002640  67.0949984
  28.0663061   8.8924807  67.2562838  29.3277478   8.5875100  66.4773464
  70.9747505  25.2532601  11.3100934  71.2799454  24.9708462  10.4479265
  71.5531921  25.9795189  11.5428674  20.9493136   2.9572016  65.2927399
  21.0179257   2.0473190  65.0035381  20.3268671   2.9312471  66.0194588
  72.7601337  80.6934452  56.8822193  72.7597523  80.0890160  57.6244450
  73.4934139  80.4049683  56.3387918  27.9374838  12.7130365  33.7426090
  27.6363540  13.1581867  34.5346904  28.1367922  11.8219340  34.0297413
  55.0737047  67.8256321   1.4047244  54.2369795  67.4827147   1.0908216
  55.0555706  68.7533998   1.1698878  16.5951645  60.6353760  62.7734947
  16.3406563  61.2896109  62.1227741  17.5209236  60.4687405  62.5961971
  74.9356222  58.7511110  60.7263184  74.1304111  58.4256315  61.1287308
  74.6774292  58.9953995  59.8375607   9.8605895  38.6580920  34.4311666
   9.2041975  38.2984662  35.0278687   9.3543339  38.9875031  33.6885858
  84.6377754  13.3658087  57.3357058  84.8300838  14.2461920  57.0129442
  85.4746914  13.0461609  57.6727772  35.8972406   0.8670806  35.3300881
  35.4886556   0.1692814  35.8423042  35.1957512   1.5029095  35.1891375
  85.8066914  76.7883205  47.0992279  85.7204464  76.4523840  46.2070751
  86.0724225  77.7010059  46.9868469  12.8087127   6.7998207  60.9444237
  12.2841156   7.1892381  60.2448606  12.4587595   5.9141994  61.0415840
  57.5254726  46.3846254  10.4085970  57.8815031  46.9031715  11.1301124
  57.8485966  45.4979420  10.5686557  29.0893459  21.5388513  68.3833885
  29.4501233  20.8523226  67.8223610  29.6843910  21.5734410  69.1323614
  12.7337301  12.7616334  27.0671654  12.6037371  13.6576676  27.3777413
  11.8661749  12.3609138  27.1219730  53.4984255  75.9244442   1.0202669
  53.9623880  76.4233112   1.6926497  53.4102011  76.5342426   0.2877410
  28.5685492   6.4945292  64.3482399  28.4149790   7.3237687  63.8954592
  28.7661600   6.7470986  65.2501249  25.4061675   6.2290400  56.6428709
  24.7918940   6.7100376  57.1974325  25.0598216   5.3370023  56.6195250
   8.3038473  46.0347986  53.9089727   8.2397556  46.9447517  53.6189556
   7.8021014  46.0071611  54.7236633  81.2413883  80.7611561  53.1648159
  81.3851833  80.5209541  54.0801620  80.3540707  81.1197758  53.1478500
  12.5360489  18.6450756  45.4352903  12.2166455  17.7728498  45.6664467
  13.4879482  18.5795808  45.5116558  11.6421473  30.3950167  64.7753716
  12.2439539  29.7777367  65.1913404  10.8175611  30.2809191  65.2478886
   6.9847226  60.9859800  58.3615017   6.3200176  61.6745329  58.3786392
   7.4957478  61.1265087  59.1585827  25.1901031  30.4637146  53.3440542
  24.9858856  30.0633812  54.1891909  25.5278444  29.7426343  52.8128242
  20.2966118  14.6908092  54.0519524  20.3919053  14.0543306  53.3434010
  19.4743609  14.4517159  54.4796991  11.0244322  11.9008505  70.0391102
  11.7737532  11.9448745  69.4451284  10.4273677  11.2773108  69.6256542
  25.5748129  20.1896429  43.8058138  26.0955930  19.5004380  43.3934832
  24.8169208  20.2938008  43.2305002  12.1482480  24.1261768  47.4692869
  12.3354900  24.1764307  48.4066486  11.7627299  24.9759912  47.2561550
   3.1959981  53.9490223  66.2037325   3.6849400  54.7567987  66.0466909
   3.2218835  53.8342142  67.1536684  31.8099093   7.4544483  62.9634619
  31.0646892   7.7926612  62.4669838  31.6716123   6.5076041  62.9878044
  17.8275836  18.8000882  39.0764618  18.6980438  19.1948700  39.0247130
  17.5262165  19.0000188  39.9627113  77.3054171  19.7450030  68.2750034
  76.8299198  19.7385526  67.4442863  77.6736593  18.8644111  68.3470440
  29.6033669  45.8273840   4.9812716  28.9747095  46.5154076   5.1995611
  30.3328514  46.2911463   4.5701638  28.8457608  26.1255527  66.6003847
  28.0993366  26.4695930  67.0910168  28.6404347  25.1997828  66.4699030
  82.5918770  52.7906561  57.8127050  81.8826866  52.9147053  57.1819258
  83.2849884  53.3786249  57.5125170  48.6976910  45.3524923   6.1451942
  47.7725697  45.4372931   6.3758165  48.7145853  44.6769285   5.4672843
  32.1887994  34.8500586  60.1356268  32.1297455  35.5432248  59.4781590
  32.8591156  35.1559615  60.7466364  41.3977242  42.5833511   4.2734340
  41.2858915  42.1883345   5.1381230  40.7092094  42.1881008   3.7386858
  51.8766880  28.8812804   0.1834862  52.0665121  28.1014681   0.7051107
  52.7275610  29.1513586  -0.1619110  34.2628455   4.4122973  56.7957544
  34.2813230   4.9298820  55.9907722  33.8775015   4.9974406  57.4479437
  77.5206327  39.2591238  10.6068373  77.5731134  38.4286189  10.1338279
  76.6227293  39.5590639  10.4652667  69.9970865  56.0991001   8.9788586
  70.5249882  56.5322113   9.6496534  70.6368065  55.7582378   8.3537179
   1.9699140  28.9438272  36.9269586   2.7861872  29.3227386  36.6008329
   1.9288917  29.2161655  37.8436828  31.8937683   2.4123168  62.9898739
  31.3767004   3.1585461  63.2932138  31.3685751   2.0260856  62.2889996
  28.7265301  39.9050927  59.8982525  29.6814847  39.8760486  59.9569798
  28.4552932  40.4187918  60.6590271  20.8590579  18.0001724  64.1058779
  20.5850482  17.2061741  63.6468410  20.9416151  17.7314389  65.0208664
  31.9300413  21.1598802  54.0762711  31.0874939  20.7119536  54.1518402
  31.7054510  22.0900369  54.0518475  12.8534544   8.0125278  66.0050440
  13.1858253   7.1925068  65.6399012  13.3653176   8.6937517  65.5689669
  21.7606330  25.6642914  45.4071474  21.6981149  26.3789868  44.7734785
  20.9672070  25.7436085  45.9366894   7.9325050   6.6671169  65.7453489
   8.0831945   6.6892070  64.8003387   7.0589334   7.0420098  65.8574152
   6.8038589  72.4279594  17.1106279   6.9957399  72.7475262  17.9922676
   6.7422611  73.2201242  16.5768588  49.1129398  59.5423174  15.0547957
  48.9300966  60.0059700  14.2375875  49.3272257  60.2345848  15.6801569
  19.5185006  24.9078155  53.7486172  19.3103254  25.7826900  54.0764713
  20.4708076  24.9085855  53.6519623  76.8605375  16.4272714  37.8075695
  76.1194277  16.2320602  37.2340894  77.1617365  17.2905445  37.5242472
  50.7379484  52.1093178   1.7804328  50.2579451  51.6876650   2.4932000
  51.5374184  52.4379778   2.1916047  37.4914527  19.3343496  49.1038656
  37.0766258  18.6712861  49.6556759  38.2843542  19.5805109  49.5802546
  76.1514378  66.0852194  14.1170418  76.1430836  66.9651270  13.7403142
  76.2587643  65.5034971  13.3645058  32.1411037   6.6142005  40.7064676
  32.4428582   7.0927227  41.4786005  32.9341722   6.4662182  40.1913214
  72.8271008  11.3853443   5.2084756  71.9129658  11.6479588   5.1006883
  72.9177380  11.2124646   6.1455613  23.6568022  26.8288589  65.7409000
  23.6843491  25.9252620  66.0555172  24.5677233  27.0385933  65.5348158
  73.8099289  33.9643979   3.7454265  74.3280315  33.1724930   3.6015946
  73.8028288  34.4037127   2.8950250  19.5459449  26.1229444  46.8819237
  18.7102246  25.7393885  47.1477938  19.3041539  26.8484807  46.3062811
  43.0212593  13.7619948  58.4651470  42.2486162  14.1058505  58.9134979
  42.6685762  13.2667899  57.7258110  32.6733756  21.9713807  59.0782690
  32.8022885  22.4140620  59.9171019  33.1264615  21.1340308  59.1772270
  17.3459458   6.3792396  45.9992361  17.0928335   6.0678697  45.1302052
  17.4805653   7.3202193  45.8866882  30.1510954  27.3627400  49.5091915
  29.8760033  26.7545915  50.1952744  30.5950379  28.0688024  49.9788952
  15.1176834  20.4972124  47.7895021  14.5213163  19.8802841  48.2137394
  15.9347641  20.4174376  48.2816887  27.2178388   4.7729126  44.1300058
  27.5430894   5.5017883  43.6016273  26.2782717   4.7464558  43.9490414
  28.7428427   4.4613814  46.3868713  29.4925737   4.6553737  45.8242846
  28.0259871   4.2839509  45.7778788  14.3864357   7.4171293  57.4758434
  14.3692577   6.4613509  57.4266052  14.8524880   7.6066709  58.2901525
  62.8443050  66.4237928   2.5596324  62.8632116  66.6687346   3.4847689
  62.2335148  67.0432281   2.1602990  70.6927252  43.4814596  25.5552530
  71.5195227  43.9387655  25.7085752  70.3105354  43.9249992  24.7979951
  53.5545492  71.8401861   5.3806365  52.7026367  72.0153999   4.9809185
  53.5915518  70.8867836   5.4573977  62.9247570  12.5454438  37.3893523
  62.9438782  13.2541049  36.7461848  62.3675966  11.8762398  36.9918990
   9.0690476   1.2977293  63.5537100   9.4405395   0.6650586  62.9389334
   8.7209147   0.7626225  64.2669392  49.6661472  21.4611411  69.7124529
  50.0721169  21.3211346  68.8569880  49.0778971  22.2044802  69.5796299
  20.4234457  12.2638988  52.6372004  20.5160713  11.3567293  52.9282236
  19.7309148  12.2341430  51.9770861  16.0892463   7.6817060  64.9609518
  16.5105188   7.0240951  64.4075012  16.1979330   7.3498815  65.8521938
  51.7471027  60.6344557   1.8003128  51.7582130  59.9699116   2.4891430
  51.0756540  61.2571192   2.0790218  38.0531001  21.5048146  46.1700106
  37.3918653  21.6309762  46.8505144  37.5541687  21.4760923  45.3536320
  21.2680268   3.1041315  49.2860079  20.9513021   3.1804919  48.3859634
  20.9031773   3.8673708  49.7338724  31.7717314  12.4116862  58.2012415
  32.7087069  12.5290608  58.0446243  31.5867734  11.5243602  57.8935480
  46.8466902  15.1823795  48.7549257  46.7795277  14.2436945  48.9298296
  47.7612305  15.3146541  48.5052252  13.3786368  20.9031415  61.7377090
  13.2164431  20.8488369  60.7959127  12.5252914  20.7358050  62.1377468
  14.1597736  24.6324277  33.5052681  14.9204254  24.0970016  33.2795238
  13.4621084  23.9988422  33.6727905  15.9492981  14.7874129  66.8744469
  16.7412400  14.9110734  66.3512182  16.2599313  14.3935716  67.6896954
  38.7452197   9.1492969  56.7465305  39.1123772   9.7834468  56.1306715
  37.9142141   8.8853425  56.3515759  14.3471241  42.4655437  59.1354227
  14.2978191  43.2845163  58.6423874  13.9342010  42.6663685  59.9752998
  37.5671673  65.2910328   5.9368831  38.5047102  65.4345703   5.8078766
  37.1458149  65.9494448   5.3844482  24.3466330  26.7255688  69.5703983
  23.8840866  26.2478662  70.2589321  23.9482760  27.5959325  69.5736694
  78.5902023  59.0635729   0.1918639  78.6115265  59.9335480  -0.2067870
  77.6746845  58.7921476   0.1256436  18.4009516  29.6289444  52.2964525
  18.0312479  29.9475217  51.4730072  18.0422163  30.2151394  52.9627228
  74.6120882  68.2381868   0.7180815  74.6365452  67.9686737   1.6362301
  73.8391542  68.7991238   0.6536289  49.1784954  64.1708088  11.9593012
  48.9215708  65.0745821  11.7765117  49.2098236  63.7520695  11.0991204
  36.6025782  54.7414494   2.5965479  35.9863639  54.3336010   1.9881330
  37.1046877  54.0097380   2.9553193  34.9573684  64.6401834  17.4957025
  34.3114805  64.1503859  18.0047822  34.4695354  64.9649286  16.7388713
  26.1992097  12.6680720  54.1587639  26.8181872  12.8432691  53.4499598
  26.4592123  13.2682717  54.8576164  27.8923917  15.5396247  44.4403172
  28.5160375  15.1361728  43.8365555  28.1020045  16.4731836  44.4127178
  30.2959895   6.0480869  67.2083473  29.6025634   6.6964805  67.3307323
  31.1081028   6.5501034  67.2767782  39.3260145   8.9148051  52.4956179
  38.5951757   9.5029908  52.3055029  40.1054478   9.4615883  52.3968983
  60.2675915  56.4680529   3.8610771  59.7547770  55.9557819   3.2359111
  59.6309805  57.0550394   4.2690122  25.7482553  25.3868318  59.2202425
  26.6848850  25.2148342  59.1234159  25.3470683  24.5182753  59.2500687
  41.1007690  56.6220093  -0.0669107  40.5089760  57.1790266   0.4388003
  41.1066723  55.7888603   0.4043277  42.0509148  23.2302690  68.7351513
  41.2351799  23.4276319  68.2748699  42.4552298  24.0851521  68.8832569
  24.4074678  24.7290635  55.6077385  24.2089343  24.8186302  56.5398264
  23.5547662  24.7772288  55.1755190  22.7378130  13.3591139  59.8534107
  23.4515262  13.9967799  59.8684311  22.8705525  12.8324485  60.6415939
  81.3222599  14.5558190  61.8105555  81.5003490  14.6222305  60.8724117
  82.1265221  14.8624837  62.2293139  14.6958470  12.6069772  51.4894676
  15.5276334  13.0634046  51.3628292  14.9068010  11.6830075  51.3552713
  73.2951307   0.8153249   4.8549670  73.8728094   0.0936731   5.1034361
  72.9886532   0.5856399   3.9777285  17.3591030  12.2181070  61.1932421
  16.7840457  11.5341949  61.5364695  16.8433154  13.0215180  61.2619829
  32.2523665  18.6620021  63.8676071  32.9939437  19.2198956  63.6329842
  31.9703054  18.9857686  64.7230864  18.1690753  30.1187754  66.3216686
  18.2297814  29.4446826  65.6448078  17.2790051  30.4612064  66.2395239
   1.3771023  47.3626947  51.3651323   2.2541404  47.6737165  51.5894175
   0.7867696  47.9485273  51.8389893  29.2932200  21.0948467  62.4588966
  29.9805593  21.1359787  63.1238031  28.7725759  20.3285742  62.6997042
  26.2246299  30.8724070  58.3986568  26.0546780  30.0159693  58.7909126
  26.9776869  31.2120986  58.8821268  78.6896086  36.9416070  15.6367385
  77.8264380  37.3169756  15.4627705  78.5684395  36.4198780  16.4300537
  26.6449261  46.5983248  29.6217132  27.2549152  46.0025740  30.0567174
  26.9310236  46.6091585  28.7083340  63.4832907  76.8525410   5.8430678
  63.4746170  77.7687025   6.1202061  64.1064215  76.4295006   6.4338118
  32.0801306   2.5894436  22.2988987  31.2571526   2.4904887  22.7775884
  32.1442389   1.7966852  21.7663050  80.0747967  77.7440214  69.0496302
  80.2398682  77.4691010  69.9515200  80.8304596  77.4211979  68.5587168
  36.8801951  17.2738981  57.9792833  36.9553328  17.2564578  57.0251989
  37.6749635  17.7185225  58.2740450  54.0042353  79.0416670  55.8538866
  54.5058632  79.0819168  56.6681194  53.2795572  79.6523476  55.9885883
  55.9658527   0.1946010  46.1765957  55.0129700   0.2675650  46.2306356
  56.2596846   0.2152850  47.0873451  29.3448472  10.5670214  61.4323235
  29.0547347  11.1563945  62.1285343  28.6860704  10.6657386  60.7449389
  24.9682212   6.6653246  41.2019157  24.6268892   6.6816062  42.0960426
  25.4364634   5.8328122  41.1394215  23.1995153  20.3872681  37.2589850
  22.5462151  20.7094145  37.8799939  24.0357018  20.6918645  37.6114702
  34.2902827   9.2637140  60.5057621  34.2447448   8.3374292  60.7427311
  34.6550226   9.6914864  61.2804937  48.3958912  10.3422570  36.4471126
  48.5250092   9.6012378  35.8551240  49.2235327  10.4162669  36.9222593
  79.7712326   5.4346621   5.4129910  78.9805365   5.1929319   4.9307114
  80.2726078   5.9700590   4.7980046  28.5371971  24.1837621  60.0225592
  28.3745837  24.1943097  60.9657860  28.6195946  23.2554770  59.8040867
  22.3088932   6.5622908  43.1167030  22.6476073   6.6816860  44.0039730
  21.4598250   6.1377656  43.2395744  34.5098782  12.6534128  57.4540234
  34.4158149  11.7008579  57.4492645  35.4543090  12.8010786  57.4042320
  25.6476474  25.3629684  50.9375286  24.7253442  25.1207304  51.0206413
  26.0526037  24.6162081  50.4964066   0.7220750  34.0074682  61.3975382
   0.2662574  34.1470933  60.5674982   0.2154788  34.5090270  62.0363140
  66.9623947  64.1370535   6.3019729  67.6637268  63.6504364   5.8688825
  67.1816874  64.0958023   7.2328001  33.4122705  38.5587072  59.9585342
  33.1367588  37.8578949  59.3676138  33.6104345  38.1133389  60.7823086
   8.9923102  22.7065778  53.2579470   8.1476885  23.1438875  53.1502151
   8.7686759  21.7895079  53.4167051  16.9091523   9.4716889  39.5319557
  17.4436653   9.5946205  40.3164387  16.5387774  10.3367174  39.3565154
  13.1569421  12.4709511  53.9946270  12.3994255  13.0558348  54.0122461
  13.2816076  12.2683692  53.0674505  20.0807476  75.2024555   2.8575033
  20.3232169  75.9360552   3.4225461  20.1981401  74.4277096   3.4072462
  49.9641180  17.3142052  60.5901098  49.6775436  17.1427345  59.6930552
  49.1574001  17.3046267  61.1052275  26.6791129   6.2014163  61.4147758
  27.6038885   6.0404247  61.2274265  26.6031265   6.0866547  62.3620272
  11.3008881  21.5915513  57.0669365  11.2895751  21.7769146  56.1279249
  10.9649205  22.3906541  57.4728823   0.2213278  18.0380666  67.4393320
   0.8546386  18.1412387  68.1496191  -0.5779865  18.4481883  67.7696800
  32.9466128  36.6824341  58.0822277  32.7241826  37.2825432  57.3704481
  33.7307358  36.2271667  57.7754402   9.3620056  20.7754970  66.4240551
   9.2861748  19.8827028  66.7608023   9.2464352  21.3324738  67.1938944
  29.3624187  13.0003321  56.5220118  29.9184704  13.1478810  57.2870398
  28.6716580  13.6586571  56.5974331  62.2259426  67.4376440   5.8539993
  61.5479422  67.7556610   6.4501595  61.7842054  66.7784357   5.3186989
  35.9766459  28.0089545  56.8537617  36.6860890  28.4260464  56.3649273
  36.2709785  28.0259657  57.7644300  18.4822869   6.6788924  62.3202229
  18.8230252   5.9615660  62.8546143  17.5710011   6.4396954  62.1511841
  55.5813360   8.4508008  43.0733967  55.6308889   9.4064224  43.0971432
  54.6479368   8.2616866  42.9772663  68.8265848  65.8507395   3.2800829
  67.8961039  66.0709190   3.3242801  69.0881586  66.0932207   2.3918188
  17.0701897  20.2486777  63.1305218  16.9119978  21.1438799  62.8308201
  16.2062728  19.9255955  63.3864498  43.1031370  23.7190938  57.5060844
  43.7778234  24.3601561  57.2823286  43.3175039  23.4473515  58.3985186
  31.8828011  22.5430417  67.6554775  32.5362873  22.3836422  68.3364916
  31.4183164  23.3271766  67.9480743  40.4851246  16.5725911  47.3909807
  40.7460976  17.1006250  48.1455040  39.6196914  16.9055295  47.1534681
  67.6993036  69.2462301  13.2810104  68.1012297  69.9827147  13.7417412
  67.6363993  68.5561609  13.9413726  18.9711607  12.0844972  64.7737455
  19.2675269  11.7517388  65.6208992  19.4713163  11.5818954  64.1307306
  43.3321810   1.7658706  64.2179775  42.4930716   1.7186694  64.6761274
  43.5256290   0.8595264  63.9785004  35.6300068  34.0739465  60.5484343
  35.6692505  34.6522808  61.3101578  36.1503816  34.5212173  59.8810625
  18.5397673   6.1051607  35.4786491  18.2007432   6.8548906  34.9895692
  19.3151486   5.8306420  34.9891043  41.2689734  45.7306767   1.3069965
  40.3320026  45.6193352   1.1459947  41.3825560  46.6747141   1.4171003
  18.5037291  17.3338294  53.6904144  18.1982839  17.0433950  54.5498228
  19.2852163  16.8069553  53.5233450  23.9418149   4.6207246  52.5801992
  24.3738198   4.6823013  51.7282534  23.4873819   5.4573214  52.6793337
  56.5887117   8.1850934  64.3115616  55.9609652   8.8322508  63.9900780
  57.1063995   7.9504025  63.5413980  13.2297111  36.4722061  61.6220093
  13.1422627  36.8533039  62.4957037  12.5579309  35.7911158  61.5894508
  40.8296871  13.3267355  11.9932604  40.7184935  12.3766804  11.9577432
  40.2042437  13.6652005  11.3525605  83.1709576  22.1966338  40.0346565
  83.1434727  22.9533505  40.6201935  82.7987957  22.5161767  39.2126918
  64.8455715  50.5708504   4.3209600  64.5925903  50.8153772   3.4307685
  65.7879066  50.4117203   4.2669925  40.0208712   3.0807772  61.7873478
  40.2015209   3.5565549  60.9766483  39.9627709   2.1637893  61.5190411
  61.8497610   4.1869748   9.4546270  61.9878721   5.1291049   9.3569118
  61.1924696   4.1117328  10.1463890  16.9200683  31.1663985  53.8968277
  16.5882301  31.8756223  53.3462667  16.1657000  30.5919695  54.0279484
  10.3938878  19.3703794  43.5161781  10.2622366  18.4700108  43.2191324
  11.2068641  19.3397450  44.0205240  85.1156521  14.3725216  64.9616671
  84.7082996  13.5081804  65.0182915  84.5773315  14.8501217  64.3305254
  72.0014238  42.9328537  30.5525637  71.5696526  43.3723402  31.2851334
  72.8918314  43.2841396  30.5536604  55.2429581  65.3614855  12.7079248
  56.0323000  65.9002209  12.6537371  55.4181051  64.6209097  12.1273255
  17.8880811  27.7441144  54.4564438  18.0006301  28.1446481  53.5943890
  17.1305096  28.1927919  54.8319530  37.5812936   7.3660600  54.5550060
  37.8756166   7.8981137  53.8157320  38.0983663   6.5629292  54.4929695
  41.8402195   7.4392980  68.4230995  41.0423088   7.9062557  68.1750727
  41.9038153   7.5602144  69.3704987  27.5807500  27.3960948  62.4604988
  28.5049844  27.5570250  62.6505661  27.3921084  27.9497576  61.7028046
  66.7171907  43.5096407   1.9984488  67.2475052  42.9693747   1.4126953
  67.0332575  44.4014406   1.8534441  80.4360485  21.8200660  15.2705383
  81.0253239  22.2153068  14.6280622  80.4735756  20.8818460  15.0846159
  82.3737717  76.1702490  46.7565489  83.0231476  75.4968834  46.5537739
  82.6819611  76.5618277  47.5738096   9.7310483  32.0948720  61.3733816
   9.2115730  32.8899217  61.2539005   9.5316976  31.5607142  60.6045055
  11.8460047  34.8100114  59.1608238  11.2393141  35.2882600  58.5956383
  11.7410934  35.2149940  60.0217628  63.8264036  30.6782722   2.4937750
  64.2907572  30.0881982   3.0874261  63.7191916  31.4866805   2.9949862
  29.6267200  25.3618813  57.7594328  29.2334390  24.8420119  57.0585060
  29.1528177  25.0980234  58.5481167  73.2932186  55.4541588   3.3480215
  72.6800251  55.4025602   4.0812060  74.1439438  55.6107950   3.7578547
  39.4792485  19.7164774  66.8345881  38.5323024  19.8017085  66.9452953
  39.7845864  19.3443286  67.6619339  29.5003963  13.1822848  48.6903763
  29.0389633  13.8691247  49.1715860  30.1268435  12.8274286  49.3211508
  53.1895018  59.5702076   8.9580065  54.0019131  59.4940281   9.4584203
  52.5498962  59.0666962   9.4616061  18.5612953  50.2543306  63.6345100
  19.1504896  51.0076904  63.6736727  18.9189482  49.6371126  64.2727518
  75.4201031  60.0181389   5.9632635  76.1625338  59.7693920   6.5138543
  75.8173609  60.4437304   5.2034688   8.2343030  76.7995882   7.0210564
   8.4403604  77.5301600   6.4379275   7.5729865  76.2946177   6.5478778
  45.3638268  15.7877445  54.9332380  44.6913290  15.1492155  54.6960402
  45.1084900  16.0922110  55.8040667  52.1003962  15.8723390  60.7362604
  51.3940144  16.4940727  60.5610371  52.7600479  16.0652924  60.0700378
  79.0219641  26.2350035   9.9706727  78.2653236  26.8110871  10.0795341
  79.2545843  25.9741759  10.8617890  22.9442525  18.4116399  66.5779591
  22.7969360  19.2166829  66.0815334  23.2107830  18.7115276  67.4470139
  62.0313740  51.2185144  55.5282354  62.1178436  51.2065697  56.4814472
  61.5883589  50.3965616  55.3176069  81.2204170   1.5273269   9.4699055
  80.9907341   2.2757784   8.9191806  81.6209507   1.9161004  10.2475059
  66.6242218  57.7188540   0.5696776  67.2800827  57.9250145  -0.0963381
  67.0387793  57.0504808   1.1152536  57.7600050  78.5699701  11.2905693
  58.3693552  78.3235216  10.5947316  56.9860458  78.8917542  10.8283186
  23.3488679  67.3456764  63.0220795  23.3425093  67.1311045  63.9548969
  23.0487132  68.2537603  62.9831457  66.6240120  69.4861126   4.8824644
  67.4480534  69.5794487   4.4044688  66.6922617  68.6341238   5.3133845
  37.0882893   4.8618573  46.2912560  36.3075948   5.1342058  45.8089924
  37.7314997   4.6603620  45.6116152  61.2811899  70.7762718   5.0205046
  60.7381105  70.2442980   5.6021422  61.0217810  71.6781616   5.2090096
  41.9757414  32.4249887  64.5395613  41.2651968  33.0519199  64.6748829
  42.4845552  32.4611545  65.3495216  67.4937391  55.3094578   1.7476957
  66.9820786  54.5251560   1.9459513  68.0785656  55.0411081   1.0390358
  81.3015079  68.2730865  10.6981337  81.5756989  68.6026096  11.5539753
  80.9906960  67.3845911  10.8719313  10.8658803   0.7109067  70.2332926
  10.0291407   1.1746014  70.2662468  10.8633602   0.2724124  69.3824387
  84.5460987  54.4529533   7.0568115  83.6586857  54.3672466   7.4052340
  84.9578094  53.6083984   7.2396779  47.5481653  32.1160269  54.8714447
  48.3342409  32.0903611  55.4170227  47.5132370  33.0147386  54.5438337
  63.6086607  37.9117489  51.4862585  64.1332388  38.2077217  52.2302055
  64.1384888  38.1272602  50.7187510  18.1191611  23.8553166  51.6221428
  17.7899206  24.6643972  51.2307119  18.8799572  24.1293406  52.1343279
   0.0745894   9.2811221   5.3402138   0.1935326  10.1402736   4.9353144
   0.9643479   8.9579892   5.4821539  28.8152862  16.5167105  63.1133461
  29.1603398  15.6402493  63.2835960  28.1171274  16.3790715  62.4731398
  47.7449131   9.7855318  68.6026192  47.9831743   9.8112810  67.6759005
  46.9563675  10.3248537  68.6622572  22.3718929  48.9886427  63.3785391
  22.6367712  49.8020267  62.9490328  23.1937051  48.5911703  63.6664104
   6.9823605  17.1990514  50.4017639   7.0798755  16.5148389  51.0640144
   6.1855763  16.9615102  49.9274826  29.4220448  31.6791439  62.4481392
  30.0415778  32.3996234  62.3327398  29.9639821  30.8905983  62.4210787
  76.4664936   8.3396721   3.9440188  76.5153456   8.7534761   4.8057678
  77.3784399   8.2611084   3.6640045   6.9863236   0.8719940   3.6108273
   7.3889041   0.7165854   4.4652328   7.2711688   0.1326064   3.0737975
  62.3244667  80.2463055  21.5484977  62.3357487  80.2798367  22.5050449
  62.6037121  81.1200333  21.2748957  35.7880592  21.7827058  48.3019781
  34.9216485  21.5170383  47.9937840  36.0203981  21.1261725  48.9586496
  30.8271599  34.0751004  62.5482368  30.0633883  34.5560360  62.8669643
  30.8813381  34.2999959  61.6194105  34.3203783  25.9096169  56.1799240
  34.6176553  25.0377703  56.4402008  35.0882983  26.4691067  56.2961245
  54.8073053  78.8261080   4.5379585  55.2844381  79.0518856   5.3364575
  53.8991785  78.7233591   4.8225337  63.7844181  41.0488224  54.2693043
  63.5174036  41.3250065  53.3925724  63.2126474  41.5396500  54.8595572
  11.6800022  72.0626879  50.5344343  11.3256550  72.9346466  50.3601742
  10.9079671  71.5121746  50.6652927  55.5228662  23.0555630  64.1736078
  55.3219795  23.2800460  65.0821686  56.1015940  22.2957635  64.2369604
   0.2127931  63.8841867  16.5121210   0.7989446  63.3578682  17.0558548
   0.6541978  63.9355135  15.6643236  40.7191753  62.3683405  56.1779022
  40.1892662  61.7654228  55.6564426  40.5154228  63.2339621  55.8237648
  39.5169663  26.7594481  56.1088181  39.8107338  27.6647830  56.2103176
  40.0684118  26.2597799  56.7108727  17.6174784  32.6068664  57.1934032
  16.7824399  33.0451035  57.0294142  18.0796194  32.6510763  56.3563204
  28.8484836  44.7962093  64.2693567  29.4327092  44.1679478  63.8448524
  28.9985585  44.6678305  65.2059603  36.3425469  20.3339529  52.8230095
  36.9130278  20.9476304  52.3602104  36.2618351  20.6997037  53.7038851
  30.9260654  31.7042375  53.1339264  31.1862159  31.6418314  52.2148705
  31.4042330  32.4635339  53.4671736  55.2272844  58.9008617   0.4886773
  56.1367893  58.7046528   0.7134867  55.2482891  59.8039532   0.1721111
  64.4415569  75.6697989  17.3393440  64.8305798  75.5321407  18.2030237
  64.7441864  76.5389156  17.0761120  69.1214132  60.1981926   7.8733641
  68.2862616  60.1351643   8.3368075  68.9133549  59.9564695   6.9708616
  36.8503380  32.6604700  66.7039108  36.7106247  31.9461846  66.0822153
  35.9807611  33.0391526  66.8330193  83.6317348   3.2249364  17.8261626
  82.6983261   3.1833753  18.0341554  83.9491081   2.3334131  17.9700184
  40.9834623  30.9474111  69.6977949  40.4181242  31.2285066  70.4172468
  40.4130173  30.9518337  68.9291573  24.0657640  51.8337202  65.3329277
  24.7935915  52.1286774  64.7856665  23.3350778  51.7288494  64.7235584
  79.0439987  27.5727963   3.4656578  78.2194233  27.6252842   2.9823822
  78.9077187  28.1286287   4.2329329  20.2045059  31.5517235  67.4844360
  19.3519402  31.1291456  67.3805523  20.6989002  31.2875295  66.7085457
  30.4523550  39.0821299  70.3933065  30.0307260  38.3293662  69.9788087
  29.9898706  39.8412451  70.0382282  70.9818602  62.7538061  17.5304639
  70.6836700  62.6649666  18.4356833  71.7849255  62.2344351  17.4907672
  32.3524547  34.0525007  65.0093365  32.2145200  34.3082333  64.0973043
  31.6933036  34.5449400  65.4984760  29.7901249  27.7606201  64.0127230
  30.4711699  27.2562027  64.4576645  29.2727971  28.1422305  64.7219276
  51.3390112  14.0505660  52.5911427  50.7691383  14.4511104  53.2476807
  51.3375854  13.1185615  52.8093100  44.4159460  29.2255306  47.5154829
  43.8853979  30.0120354  47.3883486  44.9432516  29.4151831  48.2915020
  58.2516766  40.4382563  51.7627001  57.6913786  40.7291555  51.0432005
  58.9403296  41.1011600  51.8130779  41.8108702   6.6345596  54.0821600
  42.4545527   7.1091068  54.6081972  41.2598276   7.3192376  53.7029552
   7.9201591  13.8805056  14.7756767   8.1243736  14.2381740  15.6397378
   7.0621878  13.4699178  14.8830807  83.2944775  28.7779641  69.4920444
  82.8936195  28.0401516  69.9515724  83.8527775  28.3722544  68.8287687
  59.9168062  55.8505440  55.6586695  60.1461458  56.4527416  56.3664770
  60.7572031  55.5095053  55.3526258  38.4031987  47.6573610  58.2714272
  38.7820411  47.9275990  59.1078949  38.9951539  48.0196381  57.6122046
  47.0563555  41.9622993  50.7077932  47.9583883  42.2551727  50.5782223
  46.8703651  42.1585703  51.6260099  48.0687904  18.8241935   3.7932149
  48.6903334  19.0665960   4.4796199  48.6116648  18.6823809   3.0177116
  47.2978830  42.7590561  57.3947048  48.0484819  42.3303938  56.9835043
  47.6530218  43.1499481  58.1930208  15.4961240   4.8620254   8.3438861
  16.1877084   4.4857982   7.7994627  15.3724301   5.7456356   7.9972392
  42.7716446  36.6162491  68.5599041  42.3207331  36.3485694  69.3606901
  43.2197475  37.4280834  68.7973022  50.8924007  41.7973566  49.5576811
  50.8642578  42.6741600  49.9406433  50.6830549  41.9328117  48.6335278
  85.9979916  80.4967213   7.0202720  85.5770969  81.1104774   7.6222467
  85.3317833  79.8299742   6.8534017  34.7181606  40.4468775  67.3584175
  35.4590106  40.0079155  67.7763796  34.3919325  39.8116493  66.7210054
  43.1285667  48.6117601  62.9955339  43.9086771  49.1352892  63.1787729
  42.8126907  48.9392853  62.1534061  76.1416864  78.9690828   0.5426704
  76.9998407  79.3266392   0.7706077  75.5384541  79.7036409   0.6556650
  48.9547157  47.9447460  43.1758547  48.2759523  47.9942226  43.8489532
  49.0544224  48.8461113  42.8695393   4.1069680  62.6686287   4.0188548
   3.1951627  62.4708366   4.2326802   4.1060337  63.6018419   3.8059229
  70.8250809  73.1877851   1.7402652  71.0656023  73.7321186   0.9905438
  71.3820505  72.4132156   1.6623668  44.9450684  41.3903284  60.8135509
  44.8611259  40.4368496  60.8054399  44.8430347  41.6475534  59.8972273
  56.7390299  52.0513201  56.9190311  56.1528492  51.7577171  57.6164722
  57.1278048  52.8581905  57.2567415   4.1233164  68.2112408  13.4321034
   4.3828505  67.3215723  13.6716175   3.2080325  68.1297636  13.1640589
  48.0358171  26.3747787  61.5561056  47.9138422  26.8778086  62.3612881
  48.2322931  25.4871488  61.8556786  10.4821646  80.3019047   1.6835600
  10.9655285  81.0282707   1.2898907   9.5948070  80.6408215   1.8017350
  33.0650067  58.2735205  61.4599371  32.1187663  58.2020998  61.5854692
  33.2615209  57.6504230  60.7603931  31.5952492  15.2756321  67.4899912
  32.3275208  15.8710623  67.6495934  31.7095518  14.9932575  66.5825605
  28.5196471  69.4047880  49.3493080  28.7016797  69.5986938  48.4297991
  29.0058279  68.5991859  49.5250034  40.8509970  71.6442442  11.3790262
  40.8380747  72.4607944  11.8783379  40.6647682  70.9644842  12.0266974
   4.6301612  72.0454454  10.2439415   4.8259223  71.2011957  10.6503296
   4.3697879  72.6077890  10.9734666  48.4861565  53.1691504  51.5101957
  48.0424261  53.5654163  50.7603264  48.5183239  52.2351265  51.3033152
  60.0113201  24.1121626  68.1386232  60.9597921  24.2126727  68.2194710
  59.8044968  23.3489847  68.6780834  38.5721326  32.1831036  63.0308533
  37.6294041  32.0493841  63.1289148  38.7706399  31.8549490  62.1538448
  27.8341937  70.5096436  58.9841938  27.9357362  71.2454319  58.3804274
  28.2959008  70.7843924  59.7763872  40.4793119  22.6268172  61.2088346
  41.4086676  22.5172973  61.4101601  40.0766706  21.8018222  61.4799452
  43.9829588  52.5592375  61.6003323  43.3264971  53.0360603  61.0924578
  43.8425064  52.8461456  62.5026560  48.2913113  71.2281132  62.1414614
  48.8145828  71.9553947  62.4783278  47.6511335  71.6417122  61.5623713
  54.7816706  48.4941626  55.1329994  54.6396732  48.7261486  54.2152548
  53.9547348  48.1004715  55.4112387  41.8088102  74.3275118  59.5584106
  41.7031956  74.4426060  60.5027771  42.4363899  73.6097813  59.4733047
  67.4957943  79.5454121   5.4699916  68.3853483  79.3560219   5.1715720
  67.2584820  80.3546906   5.0172377  40.0082064  30.3395700  65.1612902
  40.2772808  29.5843267  64.6383762  39.6813822  30.9706521  64.5200777
   0.3910565   5.0393087   2.3210214  -0.0072359   5.5966365   2.9895875
   1.2405588   5.4444194   2.1464840  30.7393718  10.5286777   8.5947692
  30.1019716  10.1386428   9.1929531  31.3962221  10.9230566   9.1685688
  55.1684380  41.4508820  49.9533796  55.8317375  41.0010195  49.4300365
  54.4786024  40.7990026  50.0774860  41.9575119  25.9343529  60.8432722
  42.5981951  26.5182972  61.2491846  41.4611340  25.5751610  61.5786791
  49.6386242  50.4836321  43.0423832  49.4583607  51.2519455  43.5840797
  50.4450989  50.1180935  43.4059906  65.0854778  39.3219805  49.4436359
  66.0016537  39.5861292  49.5277977  65.0334883  38.9090133  48.5816717
  42.6104879  35.9419775  63.0036020  42.3547506  36.5540171  63.6937046
  43.1979799  35.3234005  63.4377098  10.1716161  34.6199059   0.9261867
   9.9090439  35.3372288   1.5030202  10.2081335  35.0143790   0.0548147
  60.1801586  35.0191855  68.9323425  60.5690002  35.6128120  68.2899714
  59.2749977  35.3185081  69.0179396  53.5834551  26.3546395  67.2964716
  52.9488707  25.6434774  67.3846960  53.7159300  26.6697192  68.1905699
  47.6543427  45.0642300  50.5342627  48.4814739  44.9988651  51.0115671
  47.0003653  44.7142935  51.1393118  45.7149172  54.0729284  67.8919983
  44.9445820  53.8919592  68.4305763  45.4610491  54.8239422  67.3555660
  12.1291900   2.2223525   7.2443581  12.1650887   3.1606746   7.4300861
  11.2379467   1.9653368   7.4807054  63.2077837  22.1611857  57.4405432
  62.7642202  21.3137484  57.4771070  63.6070108  22.1852422  56.5709066
  16.9697523  13.7628746   2.8220910  17.7808821  14.0524137   3.2397836
  16.8683314  12.8528404   3.1009915  46.6701937  57.0658541  57.1371174
  46.0870838  57.2528791  57.8728008  46.9999504  56.1842251  57.3109865
  58.7170792  29.8886847  67.5892401  59.1737175  29.3940377  66.9087744
  57.8068399  29.9173546  67.2944880  22.3721504  18.1149888  11.6888714
  22.7188993  18.2765949  12.5663006  21.8509960  18.8929236  11.4902568
  47.5518847  35.2823734  63.3376169  47.1239471  35.7030678  62.5918818
  46.8322420  35.0336385  63.9176846   2.4579518  14.0787542  10.7889700
   2.6638913  13.7545907  11.6657484   2.4935569  13.3013201  10.2316916
  17.2952712  25.7605600   4.0157941  17.9774809  25.4150748   4.5915219
  17.7737689  26.2276173   3.3308634  51.9496727  70.7859564  56.9990253
  51.2965345  70.0925446  56.9050789  52.0027733  71.1842728  56.1302567
  49.4184494  55.7620239  65.2701139  48.8452339  56.5283871  65.2886772
  49.3585730  55.4398727  64.3707466  38.6839414  57.1799755  53.0186796
  38.0469847  57.8656769  53.2195091  39.5304084  57.5659418  53.2439661
  49.5015192  42.9325008  46.6289949  48.7150002  42.6036072  47.0642471
  49.7730398  43.6818218  47.1591139  53.2704687  42.6143789  61.9278288
  53.5828447  42.2299194  61.1087751  53.5635185  42.0051527  62.6054716
  74.7525930  50.4118681  67.7597094  74.6443939  49.8864126  66.9669771
  73.8609457  50.5490541  68.0796814  53.5860872  56.2472773  69.1104460
  53.8931131  55.3408003  69.1267014  52.7542114  56.2099695  68.6384010
  20.8860087  -0.0351359   1.2006930  20.2344155   0.5873948   0.8780243
  20.8043480   0.0050058   2.1535581  48.3555698  43.3333874  43.8382626
  47.4089432  43.4711742  43.8720179  48.6105967  43.1980181  44.7508812
  60.1400852  47.4865246  64.6795368  60.4834843  46.7543364  65.1915979
  60.9078741  47.8528786  64.2407656   6.0624099  20.0528049   0.5980629
   5.2374250  19.9476027   1.0719447   6.2279731  19.1928816   0.2115989
  52.5925064  50.0376558  56.8153381  51.8544006  50.5423689  57.1569490
  53.3669186  50.5205584  57.1039915  27.1168137  15.6892300   3.1219229
  26.9941664  16.0463035   2.2423276  26.3869286  16.0450339   3.6287779
  49.5177031  44.2909718  66.0224152  49.0268135  43.4874392  66.1944580
  49.0608215  44.9635458  66.5275240  37.5687289  63.0224419  58.9179087
  37.1251726  63.4191084  59.6676731  37.6854253  62.1054316  59.1663170
   7.5032485  41.1942625   1.3838196   6.6314584  41.5837336   1.4511031
   7.4302357  40.5663538   0.6650472  72.3836470  43.4030581  50.2941370
  71.8536949  43.4081745  49.4970465  71.8324566  43.8285160  50.9509563
  27.0617366  67.9300451  59.7176075  27.4733973  68.6751175  59.2798471
  27.6715279  67.6966667  60.4175520  46.5513754  44.2637396  46.2445641
  45.9978962  44.3190861  47.0235586  45.9887409  43.8685989  45.5785799
  38.3842039  51.8722105  64.4726896  38.3375335  52.5554657  63.8039494
  37.6684523  52.0767450  65.0744390  53.2359743  49.1754103  69.6656275
  52.9895210  48.3823395  69.1896772  53.3387566  48.8880730  70.5728817
  34.5424676  47.6324892  67.1829700  35.3450918  47.3370790  66.7531347
  34.2250443  46.8616533  67.6533842  59.2547274  17.0896637  62.3535442
  58.8840866  16.5262163  63.0327940  58.8189507  17.9328275  62.4776506
  33.5570264  61.5231276  57.1696568  34.0626192  61.9053936  56.4523840
  33.1988573  62.2768641  57.6385164  48.9826155  36.6070175  60.1099396
  48.4124613  37.0948219  60.7042503  49.1538286  37.2142148  59.3900585
  42.5352430  56.1324120  62.1101665  42.3018694  57.0502424  61.9710112
  42.6539755  56.0563564  63.0569220  43.7472486  43.7887669  67.8231049
  43.3371305  42.9240751  67.8414822  44.6489286  43.6204290  67.5494814
  62.7970982  73.1424046   0.8813638  61.9806194  73.0393124   1.3702083
  63.4806967  72.8845072   1.4997551  27.9727793  27.9744458  19.2581451
  27.1278524  27.6364040  18.9613950  28.3930492  27.2277069  19.6847427
  52.6004791  58.5616970  62.4860954  53.2988644  57.9165745  62.5970411
  52.3809433  58.5193443  61.5553713  34.9095321  56.4178991  62.5842428
  34.3123436  57.1497345  62.4292850  35.0903201  56.4510584  63.5236311
  51.3735676  33.9912701  67.6124191  51.2236834  34.5937657  68.3409595
  52.2551298  33.6495185  67.7617264  49.3979836  49.5755053  58.7868595
  49.8699427  50.2586746  58.3106613  48.8122034  49.1903305  58.1351471
  13.2538676   7.8817165   9.4552612  13.5396588   7.9820532  10.3632736
  14.0392995   7.5991070   8.9867944  76.9393587  56.9208384  60.8203220
  76.2288666  57.5371933  60.6427240  77.0666170  56.4570951  59.9926853
  32.4565339  57.0730877  65.0429964  33.1939459  56.5648079  65.3807831
  31.8138051  56.4152956  64.7775888  50.6503963  40.5672407  46.7643690
  49.8704815  40.1330471  47.1099758  50.3686810  41.4661551  46.5946054
  52.6590824  37.3334312  48.7212658  52.9258919  37.8405404  47.9545307
  51.7054605  37.4136233  48.7414646  60.7616282  42.9941607  70.2179861
  60.3629017  42.4295568  69.5558071  60.0404739  43.5381269  70.5346346
  57.1091843  37.5489974  52.1806812  57.5189734  36.7991543  51.7493534
  57.7417517  38.2599115  52.0772934  51.0405350  42.9906273  56.1910391
  51.7242289  42.3430681  56.0193777  50.6112146  43.1157351  55.3447199
  49.9162149  44.9793482  48.2868719  49.4527006  45.7261229  47.9077721
  49.6701717  44.9891949  49.2118549  67.4632502  63.3275127  62.7364349
  67.3743677  63.9053106  61.9784880  66.6386795  62.8422785  62.7656984
  70.3791046  33.6642408  53.5282087  70.0073290  33.4634376  52.6693153
  69.8891449  34.4298577  53.8282204  22.2821331  14.7382915   2.6421136
  21.7532492  14.2095160   2.0446941  21.8893838  15.6102729   2.6017681
  52.8548956  38.8691211  42.0750904  52.4975348  38.7623382  42.9566383
  52.7337790  38.0140185  41.6623449  51.3664246  31.9378591  60.1975250
  51.0799980  31.1793232  59.6887827  50.6089735  32.5230742  60.2020597
  21.2065792  64.5710039  59.5333529  20.2907205  64.5652628  59.8115683
  21.5177846  65.4494238  59.7519016  53.5546398  20.4118466  55.2508545
  53.0103064  20.4376268  54.4639158  54.4371843  20.6108999  54.9382401
  50.6671810  31.4542580  45.5018902  49.9677753  32.0091987  45.1567793
  51.2617636  32.0630479  45.9401560  61.3083982  68.7358856  13.2483923
  61.8721962  69.4536304  12.9599249  60.7162714  69.1372204  13.8844335
  82.6277365  67.7237597  -0.3324931  83.1067528  67.5007358   0.4656512
  81.7064156  67.6969757  -0.0742762  21.8741155  10.0323248  12.0039046
  20.9253573   9.9466711  11.9103336  22.0090580  10.9481263  12.2474802
  56.8654013  20.5838871  64.7212172  56.5521765  19.7153199  64.9736309
  57.0586348  21.0194182  65.5514002  44.7561741  41.4639187  57.8502274
  45.2754593  42.2476482  57.6703930  44.0615845  41.4805365  57.1918154
  79.7355413  20.8056450   5.8946037  79.7736740  21.1306620   4.9950805
  78.8024378  20.8002067   6.1079538  34.1009235  11.1533809   2.2365250
  34.8245907  10.9927082   1.6309494  33.9208508  12.0896387   2.1515095
  30.6153059  58.2353497  55.3362656  31.1686420  58.5215807  56.0629892
  29.7229481  58.2921076  55.6778908  41.1259890  55.4194260  57.4134970
  40.7748413  54.6944284  56.8964815  41.8588161  55.0366974  57.8958988
  22.4664879  78.7854719  58.9553833  22.7031279  78.1864882  58.2472515
  22.9065657  78.4295130  59.7272968  30.2012992  55.3571224  62.0384502
  30.9468412  55.0328255  62.5436544  29.7380376  54.5667887  61.7609739
  53.7509155  24.3592572  59.6559143  54.6104193  24.3146014  60.0748301
  53.5557842  25.2951717  59.6087742  54.9371243  47.2200680  68.4610081
  54.1889048  46.9012833  68.9657640  55.6939602  46.7856216  68.8543129
  15.8645904  29.9284196   9.0536809  16.0562909  30.2681994   9.9277711
  16.5676212  30.2732563   8.5031652  44.9167442  56.6283941  59.5469427
  44.0720940  56.5817881  59.9948549  45.4845715  56.0401011  60.0446606
  41.5178347  55.0316477  53.8562965  41.3043547  55.9441519  53.6613750
  40.6685209  54.6088171  53.9832163  42.6565504  33.0013680  61.5046501
  43.3776474  33.2925868  62.0627165  41.8857527  33.0373168  62.0710564
  26.0318518  24.2685294  10.6850433  26.7052579  23.8536215  10.1459634
  26.0978031  23.8276005  11.5320754  68.5801888  77.0648861  44.8102522
  69.0481901  76.2387943  44.6886826  68.3991146  77.1016121  45.7494497
  49.8831892  70.9658527  59.2816353  50.5496454  70.7221413  59.9240303
  49.0516472  70.8294439  59.7356892   8.8171846  24.4139600  18.9077497
   9.6177304  24.0690637  18.5122716   8.1088376  23.9846921  18.4279525
  53.8395405  65.9988403  64.3767691  53.5385799  65.5997515  63.5604525
  54.7589779  66.2104130  64.2152023  67.9783010  54.2048502  61.1583471
  68.4722900  54.0651035  61.9662285  68.4427404  53.6867952  60.5009699
  54.6958303  42.9628801  69.5306110  54.9142027  42.0410252  69.3937874
  53.9312220  43.1129694  68.9746618  81.3600637  80.9249563   0.9628158
  80.4997470  80.9621856   0.5448434  81.2133862  81.2691049   1.8438831
  45.5340767  32.9972148   7.0986354  44.6277046  32.8951144   7.3889869
  46.0045671  32.2815681   7.5260937  47.4972677  50.6990051  51.0734940
  46.6538525  51.1190033  51.2422657  47.2947788  49.7645426  51.0286427
  16.0602045   0.9581529   7.2443867  15.9941387   0.3588480   7.9878253
  16.8885148   1.4181744   7.3804504  46.7210197  47.5386858  50.3893900
  46.2699842  47.3039246  51.2003660  47.1476746  46.7288208  50.1095390
  75.7230520  67.0916986  54.5690918  76.2127876  66.9013643  55.3691912
  76.3962460  67.2161245  53.9000893  27.3008966  20.1398468  13.0800271
  27.4763441  19.9711847  12.1542835  28.1009960  19.8669624  13.5290313
  62.7099037  50.5426216  66.3334227  62.0652819  50.2009869  66.9530869
  63.4271431  49.9093246  66.3604259  53.5591793  45.8375216  55.5864429
  53.9441299  45.2734327  54.9157333  52.7354622  46.1381912  55.2026176
  60.6660271  28.6684442  18.3400512  60.1760006  27.8468561  18.3731830
  61.5810442  28.4057665  18.4399068  29.8386621  29.4769335   4.1503996
  29.2947245  28.7582135   3.8282120  30.1537013  29.1755009   5.0025272
  72.2478008  62.2224855  45.3923607  71.2979031  62.2233915  45.5103683
  72.5605774  61.5284395  45.9726191  78.0527925   8.8632065  66.5656567
  78.6555195   9.5922625  66.4192581  77.2640038   9.1032064  66.0794020
  64.4106627  72.0340538  58.2582760  64.6463776  71.7670631  57.3697996
  65.1066732  71.6752481  58.8087845  16.4560306  30.3667355   4.2107806
  16.4799857  30.9758687   3.4728009  17.1737254  29.7565341   4.0410724
  54.9403000  75.2666283  41.5044975  54.0819025  75.3406429  41.0874748
  54.7451162  75.1226616  42.4304628  71.4854288  17.7208185   7.5306791
  71.5146303  17.7768147   8.4857935  70.5789757  17.4859858   7.3321241
  33.4349537  20.5234241   6.3626301  34.3395090  20.3699470   6.6354930
  32.9899693  20.8115458   7.1596301  61.1504602  71.4932394  61.5605402
  60.9455061  72.3275614  61.9825983  61.7257690  71.0458565  62.1811056
  34.0805101  19.6838033  13.2726967  34.0926075  20.5526352  12.8711820
  34.9961877  19.4049764  13.2679248  77.0901394  72.6426268  57.4992228
  77.8917551  72.3581648  57.0602226  76.4847565  71.9090700  57.3913431
  73.1898069  52.6353121  43.1935883  72.6194191  52.0561934  43.6990643
  74.0738010  52.4202013  43.4911013  82.1448803   6.4895570  57.0740461
  81.5827274   7.2071105  56.7819214  82.9181194   6.9229150  57.4353409
  27.8713775  53.6440754  55.7597351  28.4577250  53.0283260  56.1993742
  27.9895258  54.4672823  56.2336493   1.6603887  72.2860527  45.8805799
   1.6665351  73.0309629  46.4816666   2.0668468  72.6201677  45.0809574
  57.7400541  72.7615643  65.9944153  57.2729731  73.2597256  65.3236723
  58.2390404  73.4200382  66.4777946  62.8987598  42.8994799  47.1146059
  63.5867023  42.8543329  47.7786350  62.8400040  43.8289213  46.8934155
  68.9444542  74.0422153  68.6125374  68.8212109  73.1453276  68.3016777
  69.7878361  74.3087673  68.2466316  48.6669683  40.9545469  64.2402077
  48.5032320  40.8404016  65.1763678  47.8891182  41.4074135  63.9144850
  36.6145754  14.2573524  15.4702890  36.9562149  15.0033534  14.9773407
  36.9179034  14.4032335  16.3663602   5.3585076  19.7017860   6.9827664
   6.2666404  19.3995070   6.9952130   4.9769768  19.3470633   7.7857840
  57.4773121  24.5608354   3.9609915  57.4848223  24.4792104   3.0073076
  58.3594370  24.8589683   4.1828150  56.1255932  75.3954029  33.9329672
  55.5841589  74.8063803  34.4584537  55.5034161  76.0114145  33.5461116
  55.3725338  29.9811459   8.6204541  56.2717342  29.6906781   8.4678173
  55.4652071  30.8288693   9.0552038  54.7368813  51.0106230  58.7427425
  54.7918320  50.5765009  59.5940685  54.5086336  51.9167566  58.9502478
  52.5907516  43.8074255  67.9750061  52.1867514  44.6591520  68.1410599
  52.8863049  43.8556910  67.0658588  64.2892694  59.2984056  50.8774757
  64.9349117  58.7294769  51.2966394  64.6123934  60.1852655  51.0365486
  75.8118296  77.0552254  67.9969263  75.6682777  77.5659990  67.2002220
  74.9749994  77.0935440  68.4600353  63.7309790  61.3584137  64.8383522
  63.5671139  61.5548849  65.7607269  62.8889227  61.5077734  64.4083881
  62.5339317  66.5034103  44.9693823  63.2938147  65.9854460  45.2349377
  62.6061296  66.5635729  44.0168095  21.0273385   0.0004710  49.8642588
  20.2726173  -0.2128300  50.4130125  21.0140991   0.9553818  49.7994375
  82.2179031   2.0408213  57.7358437  82.7427387   2.6610816  57.2298193
  82.6772594   1.9648236  58.5721731  55.7442236  70.5508804  54.6564293
  55.9958696  69.9906349  55.3906202  56.5684319  70.7458830  54.2104673
  81.4062977  74.8338461  39.3951416  80.6415462  75.3644514  39.1718650
  81.0648632  73.9431572  39.4747090  85.9035873  71.0820866  42.7098465
  86.6740894  71.3034439  42.1868181  85.2002048  70.9798574  42.0687294
  59.0077305  75.3572273  49.8980379  58.3049536  74.8115587  50.2509975
  58.5743761  75.9210205  49.2572737  48.9501238  46.2321806  59.7049189
  49.5540762  46.6297817  60.3321266  49.4637489  46.1414957  58.9023018
  56.3562441  59.6290922  54.5406866  56.9416189  58.8720036  54.5211411
  55.5043697  59.2669582  54.7844124  41.9078875  26.7190361  67.2982407
  41.9105148  27.6762176  67.3036194  40.9806347  26.4819813  67.3138952
  53.0648232  79.5999908  66.7118216  52.5090027  78.9761257  67.1788168
  53.9584017  79.3264198  66.9189692  79.8761702  50.0181484  43.7327290
  79.8323154  49.5688105  44.5767689  79.7020531  50.9361029  43.9407492
  60.7014084  56.8158913  67.8859425  61.0354710  55.9188938  67.8919697
  59.8151827  56.7438078  68.2403946  54.9800205  50.1614571  61.3918829
  54.9054718  50.9945393  61.8573427  54.1121674  49.7651911  61.4695787
  32.3866034  32.9427886   6.5094203  33.1007457  32.4783111   6.9458789
  32.2029161  33.6895370   7.0793843  54.6293211  46.5130758  59.3658066
  53.8193750  47.0129156  59.2639160  54.8878336  46.6588163  60.2758408
  46.9919777  65.6619835  55.7822371  47.2208405  64.7604561  55.5561733
  47.5892496  65.8892107  56.4948845  73.0230522  75.0153065  44.8098755
  72.8363991  75.9092808  44.5231628  73.7814856  75.1024008  45.3873014
  61.5532589  54.0640593  68.8485241  62.2289801  53.7492752  68.2480717
  60.9366417  53.3352757  68.9184856  25.6287527  25.9178972   5.3266537
  26.0957241  26.3445544   6.0450768  26.1385965  25.1284099   5.1450014
  34.6250868  59.3821812  65.6933832  34.4584203  58.6444235  66.2800407
  33.8328171  59.4479895  65.1602697  64.5917273  78.9151716  63.0895996
  64.7337389  79.6817255  62.5342035  64.8480129  78.1724691  62.5428438
  68.1994057  71.5917063  67.7371025  68.4577608  70.7270718  67.4178982
  67.2792006  71.6742945  67.4868393  51.1453962  65.0752831  53.6586142
  50.5887556  65.8535051  53.6862040  51.5028334  65.0678301  52.7706909
  31.2845874  13.2150149  33.3574915  31.1311507  13.1035841  32.4192619
  30.5820346  13.7967908  33.6476445  22.6839566  12.2301245  45.8486795
  22.3368740  12.6265502  46.6478109  23.4603143  11.7501903  46.1370611
   1.9930421  52.9967976  52.9081583   2.7740991  53.3503103  52.4824715
   2.1420681  53.1437492  53.8421965  43.3131552  78.3665371  44.8261118
  43.5042858  78.5252762  43.9017153  44.0500069  77.8400278  45.1360607
  30.9196877   6.2724930   2.8701669  31.2233210   5.8691543   3.6834055
  31.5577078   6.9636637   2.6928407  47.2747421  58.4804296  61.8464851
  47.1717453  57.5290108  61.8670940  48.0874062  58.6437893  62.3251581
   1.5172438  75.9013128  54.4527054   0.9521217  75.3475142  54.9913883
   2.0878224  75.2856159  53.9927197  62.3701000  73.2988691  44.4107103
  62.6050901  74.1755199  44.1065788  62.8428125  73.1972313  45.2368116
  60.8811188  37.7291131  57.1207380  61.5062857  37.3428392  57.7340794
  60.2289391  38.1529593  57.6786327  30.0708508  59.4872856  38.3264542
  29.4956875  59.6279812  37.5743747  29.5587182  59.7844553  39.0785456
  23.8452125  56.5719271  13.3575177  24.3993831  55.8117580  13.5343421
  23.1467199  56.5159941  14.0096021  54.4418621  32.3468804   2.8530738
  54.0437984  31.4981651   2.6595244  55.0775576  32.4792361   2.1497902
  69.0105915  37.1432853  51.9872713  68.7311220  36.8117428  51.1339235
  69.9667740  37.1421576  51.9432211  63.3785295  50.7508802  51.0367012
  62.5813675  51.1684275  51.3629150  63.6949873  50.2295732  51.7744875
  51.5742779  80.5796337  56.5482616  51.3478756  80.7322884  55.6308365
  51.9860506  81.3957024  56.8323326  42.3094559  39.1381311  63.7491035
  42.2464514  38.6596012  64.5757055  41.5141964  39.6700048  63.7190437
  60.4332590  37.9367638  47.3691416  61.3744879  38.0638075  47.2500706
  60.2430010  38.3369517  48.2176018  57.4367523  55.1415586  63.4782267
  57.9661274  55.9196901  63.6528921  57.8799391  54.4387388  63.9534807
   3.9601770  13.4200001  69.6494246   3.1689164  13.0286336  70.0195217
   4.0207422  14.2788577  70.0676680   6.8469864   1.2713645  54.3122959
   7.7807206   1.1175165  54.4561863   6.4739430   1.3206208  55.1924372
  51.1316919  39.3445206  44.3977690  50.5281925  39.7984266  43.8095617
  50.9599733  39.7265100  45.2584839  24.8688173  18.4725487   3.9218411
  23.9506578  18.6448801   4.1304508  25.0927591  17.7025819   4.4445562
  69.8042488  63.1561422  51.7312908  69.9085760  62.4687815  52.3892307
  68.9321375  63.5147476  51.8957663  58.7654972  69.3184280  41.6485119
  58.5575199  69.0296221  40.7599354  59.0786934  68.5288858  42.0898294
  41.5314484  46.5717030   6.6448569  41.5469313  46.9668198   5.7731485
  41.7947435  45.6628132   6.5005648  66.2208700  65.5461073  57.1525383
  65.4343414  65.2140331  57.5853586  66.6052818  64.7772264  56.7314911
   6.1548465  66.7859030  47.0813417   6.8851411  66.2717533  46.7370272
   5.9267789  66.3559055  47.9055500  60.3675890  77.4346018  57.2146463
  59.4276142  77.3247147  57.3581934  60.4353571  78.2057333  56.6516161
  57.9999495  47.8861952   7.7910388  57.8089762  47.3709440   8.5747969
  58.2679415  47.2392130   7.1384883  63.0671644   6.9932979   5.6200749
  62.2405624   6.5967476   5.3449214  63.5260248   7.1828038   4.8016828
  56.0107994  69.4443846  57.2975588  56.6934395  69.8395824  57.8398275
  55.2502108  69.3848276  57.8756523  15.7337558  20.8232427   3.3889842
  15.8616924  21.7718220   3.3810207  16.5119028  20.4802942   3.8284209
  49.0224552  56.9751644   4.9630526  48.1136465  56.7000914   5.0840306
  49.4766569  56.1824274   4.6775615  50.9864378  56.6937828  56.3051653
  51.8032646  56.8703938  55.8384323  50.9939623  57.3057890  57.0411158
  19.3846917  29.1779828  10.6979835  19.3305433  28.5825372   9.9504906
  18.5067070  29.1645074  11.0790253  64.7390938  44.7500849  51.4197111
  65.4885960  44.1625500  51.3233757  64.7409868  44.9908066  52.3461437
  55.6353760  62.2605944  64.0698338  54.7971249  61.8194962  63.9320040
  55.5153608  62.7550745  64.8805857  60.7166004  74.0536022  62.8886700
  60.8184052  74.8967695  62.4471521  60.9600830  74.2283297  63.7977457
  21.8913817  32.8358603   7.7285790  21.6264606  32.8240108   6.8088472
  22.7637863  32.4419904   7.7316326  72.0309305  51.5253735  65.1669645
  72.3395777  52.2528267  65.7071304  71.1528683  51.7878962  64.8907042
  77.2905064  75.5680752  51.2982178  78.1837177  75.2715111  51.4727306
  77.3794460  76.5044212  51.1205149  62.6126242  44.2693567  67.9612732
  62.2029257  43.5725737  68.4739876  63.0129957  44.8434401  68.6142349
   4.9858230  71.8876028  20.4271197   4.5035547  72.3213530  21.1310434
   5.6068283  72.5480652  20.1199174  82.2347832  71.2195253  46.1099815
  82.2583675  70.2739668  46.2569284  83.0753803  71.4189005  45.6978321
  47.1757603  66.8373871  51.5524817  47.5652695  65.9736443  51.4165878
  46.8986464  67.1152115  50.6794119  25.6913447  21.4377165   3.4030858
  25.0213361  21.5328670   4.0800387  26.2123823  20.6861496   3.6857501
  55.5284929  81.2281227  30.4673004  54.8366642  80.5790901  30.5952334
  56.1595631  80.7953358  29.8922610  71.1752415   0.1846808  59.7211409
  70.4793310  -0.1144269  60.3063536  71.0845327   1.1374894  59.7085094
  50.8629894  62.0754671  55.4138517  50.5783892  61.5269041  54.6828842
  51.7849588  62.2574472  55.2319574  71.4468098  52.3406935   9.4757819
  71.7283821  53.1893539   9.1341245  70.8283710  52.0128822   8.8228631
   8.2887667  20.5404663  55.7207537   7.6866281  20.1821113  56.3728619
   8.2281756  21.4889550  55.8344650   9.9786681  49.2119598   3.2840481
   9.1412824  48.7552118   3.2040811  10.5445194  48.7896490   2.6377550
  60.5793476  71.6019392  58.8943863  61.1253500  72.3405123  58.6249018
  60.7315731  71.5225887  59.8360682  30.7944798  26.1039662   5.3275388
  30.0464034  26.5855050   5.6807142  30.4633355  25.2170539   5.1862550
  45.1306725  51.7863035  51.7565012  45.6786680  52.5630569  51.6443157
  44.3074131  52.1230412  52.1101809  69.0323925  47.1286964  66.8883419
  69.8318243  47.5737762  67.1694994  68.3403778  47.7783155  67.0122099
   0.4697713  70.9604788  69.6454096   1.2673360  71.2299442  70.1009417
  -0.1659088  71.6464567  69.8493195  77.1433353  64.8829699  63.8854218
  77.4618816  64.7809219  64.7822762  76.1934090  64.9585390  63.9757872
   3.3323246  22.7597690  33.8976216   3.0508173  22.5009871  34.7751284
   3.8822180  22.0353699  33.5991359  55.4605532  41.0837126  62.5050497
  55.7635927  40.7281065  61.6696215  55.4548025  42.0318556  62.3738050
  28.4389901  53.6131239  69.2428637  27.5961375  53.5342646  68.7960863
  28.2263899  54.0118265  70.0867081  68.4102631  36.7588878  49.3783140
  67.6527596  37.3130369  49.1903448  69.0717888  37.0341587  48.7436104
  55.6076956  75.5411816  55.1504040  55.9483862  75.8642340  55.9845495
  55.4392385  74.6115875  55.3043747  66.3773394  42.2895241  51.3231945
  66.4421892  42.2599983  52.2777367  67.1857071  41.8795872  51.0154200
  44.4389057  56.1997414  66.3884735  44.3158102  56.8602180  67.0702696
  43.5519743  55.9159851  66.1669636  31.4658117  25.9806085  10.7295716
  30.5274081  26.0609579  10.9003723  31.6055036  26.4752650   9.9220872
  56.3644743  76.1470747  57.7760839  56.5030289  76.9408751  58.2927179
  57.2397614  75.7743740  57.6702309  63.5901260  39.3601561  57.9793501
  64.3178082  39.2058754  57.3769331  62.8281403  39.4718218  57.4108934
  49.2249537  59.3891335  59.2048502  48.4177351  58.9228821  59.4222069
  49.8773575  58.6980820  59.0906191  48.7481165  79.0867996  42.7818060
  48.4718084  78.3029985  42.3068953  49.1889477  79.6231604  42.1228552
  77.9137230  16.7943835  53.5914660  78.6150742  16.8781996  54.2374611
  77.6730633  15.8683109  53.6180067  24.7844481  55.7997179   9.4759828
  24.7015786  55.0101995   8.9411724  24.1727138  56.4214230   9.0816504
  54.3805170  80.1914120  50.6189728  55.0276184  80.8930588  50.6909657
  54.2734718  79.8714781  51.5147495  58.6610556  52.7673721  53.0375576
  57.9905796  52.2392178  53.4708548  58.4041548  53.6723995  53.2140875
   0.5134094  73.7870502  58.8978148   1.1262341  74.5174408  58.8129377
  -0.2335541  74.1547775  59.3701029  62.1582031  51.7655087  63.8694477
  62.0060301  51.1092615  64.5494604  61.2819958  52.0576096  63.6181259
  26.7890573  27.1706843  16.0197151  27.3133826  26.4058256  16.2570047
  25.8924341  26.9272113  16.2499833  49.3486023  60.0934553  53.8928890
  48.7826586  60.3957510  53.1825686  49.0006495  59.2329216  54.1266537
  57.0019960  50.7138157  64.0510559  56.2775421  51.2408447  63.7139511
  57.7825403  51.2391901  63.8750839  50.7911110  45.6490231  57.5602293
  51.0268402  44.7573662  57.3040819  50.3096771  45.9947824  56.8086290
  56.9291687  45.2463388  64.4187403  57.7404690  44.9851942  64.8544407
  57.0292902  46.1865377  64.2696524  12.9830956   1.7466624  66.3920450
  12.5478292   2.4160737  65.8641577  13.0181229   0.9779877  65.8227062
  56.9296551  51.0526180  54.2485714  57.3376131  50.1890278  54.3119049
  56.9485474  51.3926268  55.1431465  46.7900610  21.8502831   6.1354482
  47.1145630  21.9268513   7.0327038  46.7008066  20.9080172   5.9926248
  66.1249113  49.8404074  48.9637995  65.8906841  49.0409040  49.4351435
  66.9075155  49.6042871  48.4657955  34.0247655  23.8632751   8.2628709
  33.2483411  23.4233046   8.6090255  34.6221232  23.9171052   9.0088582
  54.3179417  56.3454676  65.0728655  54.3108988  57.2113466  65.4808283
  55.0107718  56.3965797  64.4143772  49.8076344  73.0289125  57.2950697
  50.2486610  73.6944914  57.8230190  49.7539949  72.2647429  57.8690100
  59.9437332  63.0622101  60.6070948  59.8420763  63.8494873  61.1419773
  59.0959406  62.6217031  60.6657219  62.7426958  62.3562717  50.7415915
  62.6569939  63.3061266  50.6599712  63.6831379  62.2083187  50.8411407
  32.6744699  32.3513556   1.3580500  32.3073578  32.5635719   2.2162008
  33.6215353  32.4192452   1.4792551  76.3585329  31.4608335  42.2303009
  76.9109821  31.3646460  41.4545536  76.9771147  31.5533948  42.9548836
  43.3396912  53.2624054  64.1695118  43.7934065  52.8192329  64.8864269
  42.6657867  53.7877131  64.6009493  75.9750509  77.8220081  35.1855254
  75.4725933  78.3134842  34.5357394  75.5652905  78.0425358  36.0220027
  62.4156809  59.1137838  54.9230576  63.2971001  59.0658331  54.5528746
  62.4514580  58.5556316  55.6998587  69.8801327  59.3612814  49.3277121
  70.1539946  59.0167952  48.4776783  70.6915760  59.4308519  49.8306561
  11.1148310  54.9868917  47.6514626  11.5391123  54.7251558  48.4685993
  11.4985132  54.4134474  46.9880009  50.9689093  63.9605141  58.7757587
  50.4159355  63.2751942  58.4005451  50.8978558  63.8343382  59.7219419
  70.3361750  60.7242393  41.6412020  70.2612257  60.2167606  42.4493361
  70.0556469  60.1212072  40.9528065  57.1992970  45.4346657  59.3966913
  57.5815058  45.7496929  60.2157831  56.2590599  45.5821705  59.4988012
  41.9608641  69.9369192  68.6315918  42.1506882  69.1877508  68.0668402
  42.6811743  69.9503469  69.2618370  51.2301779  26.3898873   7.2408700
  52.0682716  26.8228459   7.4032605  51.0289907  25.9416842   8.0623752
  65.2869940  81.0461140  65.4591990  64.3344450  81.1400318  65.4670572
  65.4398870  80.1890182  65.0613928  52.0472956  75.6688261  46.3075018
  52.7602863  75.0649214  46.0997295  51.2526989  75.1945162  46.0627937
  54.3685675  58.8605928  66.2251616  53.6135435  58.5159111  66.7019892
  54.1058397  59.7440815  65.9669876  10.6600702  11.9651806   7.2930443
  11.2567151  11.2583089   7.0469129  11.1721992  12.7644968   7.1703666
  66.3779497  78.4663296  53.6174679  67.1523285  78.0162811  53.2797861
  65.6640339  77.8410673  53.4925508  32.4109101   7.0490313  45.4593515
  32.6495051   7.5800622  44.6995449  31.4838028   7.2390974  45.6027985
  57.5601339  33.5856056   2.1302280  58.2728958  33.2853699   2.6941937
  57.3781824  34.4768786   2.4281508  55.4506207   3.0093560   0.8465575
  54.5720005   3.3631212   0.7083224  55.4694176   2.7700543   1.7731713
  20.1915169  20.0440311  48.7373781  20.0517988  19.7094643  47.8515053
  20.6020808  20.8990526  48.6085081  49.6317088  56.8579155  70.4515044
  50.1058900  56.8368464  69.6202762  48.8471210  56.3329929  70.2930443
  70.3991604  81.0472488  63.6980724  70.5117893  81.3029194  62.7825499
  70.6420803  80.1216412  63.7198830  78.7217760   5.0284636  69.9097681
  78.8516235   5.3922909  69.0339851  79.3878269   5.4561722  70.4479790
   6.3897574  14.1466379  49.2024803   7.0583135  13.6247087  49.6461630
   6.0517895  13.5702944  48.5170317  42.0521450  76.7768955  48.5475397
  41.1840248  77.1430635  48.7164307  42.1947718  76.1584473  49.2640638
   4.4322252  -0.2134073  53.6167240   3.8889375   0.5669266  53.5065031
   5.3299779   0.1040865  53.5194111  83.0846500   1.2805577  54.0006399
  82.6709366   2.1269241  53.8311005  83.8784504   1.4957841  54.4903135
   2.7960470  72.1045542  32.7960825   1.9066699  72.4175453  32.6309276
   2.8197539  71.2320662  32.4030924  66.0674095  75.4251432  50.2387810
  66.6950274  74.7151756  50.1035976  66.5841389  76.2243557  50.1363754
  68.9113760  26.9095469   9.6067792  69.5782471  26.2436295   9.7743213
  68.5968256  27.1575522  10.4761374  75.7171774  74.1377831  63.8583040
  75.1705217  74.2137194  64.6403742  75.4374313  74.8626423  63.2992411
  14.5350266  19.9382663  42.3949480  15.0745666  20.0919700  41.6193819
  15.1394463  19.5664752  43.0373478  78.2744360  70.2840281  32.9527330
  79.0865660  70.2084303  33.4536910  77.8417349  69.4381523  33.0689168
  27.3877954   3.5096660  50.7826900  28.1898546   3.0738658  50.4945755
  26.9931674   2.8983074  51.4045763  35.7831383   7.5847387  56.5529013
  36.4778519   7.5666672  55.8946657  35.8719087   6.7527020  57.0177317
  10.3930902   8.8186461  45.8617878  10.1857007   8.8116735  44.9273539
  11.0469949   9.5111823  45.9568405   5.6108725   7.5501412  67.2670507
   5.3118777   8.4395605  67.0779276   5.7457781   7.5392181  68.2146311
  81.1454010  13.9764261  65.2421808  81.0966682  13.2461035  64.6253443
  80.2856445  14.3936610  65.1877785   9.8135507   8.9825118  62.2514486
   9.4456172   8.2464594  62.7404118  10.7312298   9.0148109  62.5217295
  83.5689831   0.8289964  26.7694330  83.8848972  -0.0703862  26.6825724
  83.5600948   1.1672574  25.8740377  49.6894646  75.8456659  39.7579336
  49.6914673  76.7136383  39.3543935  49.3084145  75.9854460  40.6248188
  72.0030308  69.5894051  58.9435959  72.1958256  70.1249027  59.7132063
  71.2693024  69.0372181  59.2137194   5.8351356  15.9380698  42.0668364
   5.4146892  16.7973363  42.1002817   5.5448657  15.5615628  41.2360430
  56.0846949  77.0016050  44.9255753  56.5575266  77.8000402  44.6907139
  55.1863384  77.2925568  45.0822353  64.5395994  41.1930275  61.4032745
  63.9688873  41.3717890  62.1506500  64.2762756  40.3229380  61.1035585
  10.2477956  28.1671977  27.6865864   9.6338695  28.8759518  27.8789306
   9.7462040  27.5555110  27.1476269  21.5568209  60.7603741   1.6638961
  20.9203124  61.1634064   1.0734251  21.6717505  61.4011431   2.3656350
  38.0549359  26.6630292   4.2930409  37.8347802  27.3941994   4.8702371
  38.6440945  26.1164212   4.8129851  71.9026089   2.6148906  66.3666487
  72.7061939   3.1321555  66.3125753  72.1867847   1.7140301  66.2119675
  17.2096908  26.4173293  50.9470844  16.7816603  26.9480228  50.2752352
  18.1154084  26.7268944  50.9558249   8.2262641  10.8418572  46.7893839
   8.0045128  10.7324386  45.8646774   9.1763651  10.7303596  46.8226624
  60.3396177  15.4170549  41.2463856  59.8335552  14.6778977  40.9090757
  60.8873415  15.6883740  40.5097628  49.1241217  50.7134867  10.0648177
  49.8576021  51.1862087  10.4582345  48.7142706  51.3510084   9.4801664
  64.2446423  57.4992466  57.8669691  64.7053194  58.2054234  57.4138355
  64.8225546  56.7412615  57.7791786  60.4315615  67.4641562  47.0767212
  61.0650301  66.9435406  46.5828562  60.3981400  68.3019257  46.6149235
  64.0844202  72.2129107  25.3376579  63.1438160  72.2920322  25.1788211
  64.2834520  72.9180145  25.9536505  24.8140740  11.0982752  47.1884871
  25.1308823  11.7164826  47.8470373  25.5041814  11.0801029  46.5254259
  82.3382759   8.6089587  50.9583998  83.0254745   8.2862288  50.3754473
  81.5214348   8.3896899  50.5101585  56.5758419  79.5293427  43.2767296
  57.2206926  80.0946522  42.8514862  56.3147783  78.9093542  42.5957775
   1.1577449  17.8437972  46.2126780   0.9779578  17.8548837  47.1527767
   0.3092587  17.6618767  45.8086872  70.3363705  72.2579193  50.6271458
  69.9000454  72.1411133  49.7832251  71.1413288  71.7452192  50.5535889
   8.0576120   1.3315615  70.3693208   7.2203789   0.9898266  70.6831580
   7.9176055   1.4877543  69.4353864  59.4067097  54.4279432   2.0455490
  58.5702991  54.0753174   1.7417388  59.8925734  54.6172333   1.2428426
  20.6131005   5.8965951  33.3713102  20.6016946   4.9499780  33.5127974
  20.2068734   6.0153556  32.5127602   5.1120865  13.8697302  28.2169175
   4.9591306  12.9739881  28.5177207   4.2439425  14.1930091  27.9759836
  23.3503890   2.1095720  68.3594942  22.6755071   2.4606737  68.9404345
  23.7055516   1.3569045  68.8323355  24.6063066   9.0720981  12.7664912
  24.9566889   8.1933737  12.9124629  23.9796257   8.9642686  12.0510352
  13.1239617  76.8733692  39.4046998  13.2940865  75.9314108  39.4021773
  13.6735225  77.2141218  40.1104641  42.9822731  75.8895016  57.7415085
  43.7264395  75.8406305  58.3415604  42.3040581  75.3570795  58.1571770
  41.3112020  68.8581276   6.1542076  41.7728853  69.2832565   6.8769449
  41.9631767  68.2771444   5.7622635  64.6412849  66.7163181  14.9627697
  64.9269199  67.4591351  15.4946220  65.0293827  65.9526443  15.3898668
   3.5026801  29.5951319  50.1495123   4.3394890  29.9241829  50.4777002
   3.6854327  28.6919332  49.8905420  57.2250795  75.6831217  52.7402210
  57.1707916  74.8914433  52.2049427  56.4767981  75.6225109  53.3340549
  68.9340401  46.7087173  54.5929670  69.4561720  46.5019464  53.8178205
  68.7596941  45.8590984  54.9979258  18.9451313   5.1938826  67.5845146
  19.5803106   5.8989972  67.4596453  18.9842260   4.9993530  68.5209227
  65.6083727  72.5138903  42.5134230  65.7107162  73.2168484  43.1549931
  65.0110006  71.8934965  42.9311323   2.4277312  16.7191851  54.9264717
   3.2684210  16.8097949  55.3750944   2.2810915  15.7743740  54.8810577
  15.4923177   0.7962649  64.9702406  14.8543322   0.5043524  64.3190956
  15.9214842   1.5493825  64.5642090  49.4525194  34.0715933   8.7465763
  50.2118397  34.5627356   9.0603328  48.7826586  34.2130709   9.4155365
  30.6963229  47.1148157   0.7277842  30.2500534  47.0090437   1.5679556
  31.0925484  47.9848814   0.7749067  36.8656135  61.9501829   5.7313728
  37.7976418  61.9775486   5.5150247  36.7595530  61.1411428   6.2318105
  78.5973978   6.0459983  43.7919426  79.4179058   6.0674214  44.2844248
  78.6701632   6.7730069  43.1735611  79.1353416  76.6005659  38.7193060
  78.9615679  76.3479137  37.8125525  78.5489941  76.0497522  39.2379880
  25.1025796  14.1092145  18.1872463  25.3858137  14.1574240  17.2741830
  24.1466784  14.1322780  18.1430328   8.3421552  12.2023904  58.9135122
   8.7468249  11.3358939  58.9542341   8.4321785  12.5507033  59.8005342
  65.5136728  61.8388891  57.6772642  65.2716160  61.9407129  56.7567873
  66.0049677  61.0179043  57.7063179  43.5713911  58.6896420   1.2628947
  44.4125891  58.2358313   1.2111795  43.1054449  58.2500887   1.9741739
  78.2393742   0.8720218  65.3242970  78.1204748   1.5918115  64.7046232
  79.1483593   0.5982122  65.2018118  84.9179840   7.3708439  37.0201707
  84.3619633   7.8777909  37.6118422  85.5877113   7.9906112  36.7310405
  23.2966542  10.2014029  52.1346760  23.2290602  10.5962360  53.0040264
  23.2420707  10.9417892  51.5304565  56.2798977  36.8960452   8.5141861
  56.1539364  36.7937756   7.5708377  55.5244398  36.4575434   8.9056277
  49.4518518  72.2050476  35.8156085  49.7687054  72.3707294  36.7035198
  49.2652130  73.0746317  35.4617476  25.6805849  74.6016264  42.1360922
  26.3752437  75.1709938  41.8051815  25.0442648  74.5604086  41.4222097
  53.7078238  77.6258802  45.6716156  53.4398699  78.4462690  46.0856104
  52.9789782  77.0268059  45.8332491  64.3050051  74.0268040  48.7769270
  64.8914433  74.5535421  49.3199396  64.2281246  74.5194626  47.9598522
   5.7536960   8.1192499  69.9576426   6.3906139   8.7966996  70.1848650
   4.9060535   8.5016298  70.1846218  41.5302086  68.9376879  50.9901381
  42.1363401  69.2239380  51.6734314  40.7830667  69.5308208  51.0689020
  17.6924324   5.8416218  58.8288164  16.7442036   5.9722137  58.8225222
  18.0457139   6.6672242  59.1601801  73.2079697   0.4944823  64.1945410
  73.5250902  -0.1175775  63.5304260  73.5167217   1.3506584  63.8981199
  59.2779398  78.4384203  36.5574646  58.3557224  78.4801149  36.8104672
  59.7115803  79.0736198  37.1272945  70.7566404  55.4665375  61.4276981
  70.4587078  54.9010658  60.7151604  71.6322470  55.1432419  61.6398954
  61.7864227   3.6412647  44.1817522  62.1893644   2.8362614  44.5070839
  62.1996832   3.7891391  43.3311129  73.2604694  80.1893520  50.3608942
  73.0962372  81.0942841  50.0956249  72.5318623  79.9745035  50.9433079
  25.1408172  38.8049650   6.3507706  24.6135068  39.1884160   5.6499571
  24.6594119  38.0193925   6.6103023   9.5210868   3.9328355  55.1973629
  10.0572693   3.4106258  54.6006727   8.7463737   4.1626531  54.6843004
  72.5284815  75.6167412  55.1826811  72.5864315  76.3548183  54.5759630
  71.8211985  75.0745344  54.8334026  62.4029112  80.6382465  31.1883736
  62.0384693  81.5084362  31.3502121  61.6377974  80.0804520  31.0480261
  58.4974146  70.4273415  61.3837671  58.0564642  71.1255836  61.8677711
  59.4138813  70.7014751  61.3495541  54.5981026  75.7323456  59.9453640
  55.1701546  75.5388880  59.2026901  54.6706152  74.9630547  60.5103111
  73.1186962  80.9618759  53.1198311  73.0728531  80.0177193  52.9691410
  72.9644060  81.3496685  52.2584152  40.4718781  73.5084534  52.5520754
  41.1417055  73.5976171  53.2300234  40.4877377  74.3455648  52.0881462
  25.1091719  40.3830194   1.8626334  24.7030163  41.1954355   1.5605532
  24.6237516  40.1527023   2.6548147  70.6931543  57.0196342  55.4338360
  70.9228134  56.1388302  55.7299185  71.4327240  57.5637245  55.7044649
  79.8070621  76.4531422  46.1017370  80.6677437  76.2308788  46.4567804
  79.5056725  77.1826029  46.6432905   2.0927760  49.6121550   7.2308171
   1.5472025  49.1371632   7.8576863   2.3609769  50.4033613   7.6980287
  72.5860167  76.9668484  67.2126055  72.7649784  77.8200197  66.8172550
  72.5670385  77.1384001  68.1541157  15.1186514   2.4007595  56.5500355
  15.5680466   1.5560898  56.5784788  15.4484057   2.8208709  55.7556772
  26.5292597  59.8100424   1.6253403  26.3393998  59.7929239   0.6873144
  25.6740260  59.9203825   2.0408352  44.3796349  32.2138190   1.7850369
  43.4483480  32.2271490   2.0058481  44.8105383  31.9066882   2.5826743
  59.9888754  80.1973534  68.0235481  60.7012558  79.5701408  68.1474400
  59.2104292  79.6542740  67.8997803  85.1677990   6.6149789  61.8600893
  85.9016418   6.9562590  62.3712015  85.4293251   5.7229900  61.6316414
  68.5742188  68.4022284  40.2468157  68.8334990  67.5365734  40.5624819
  68.7808514  68.3881807  39.3122911  10.0429034  11.8169725  51.9856882
  10.3301024  12.6584136  51.6311073  10.3450060  11.1719370  51.3462353
   6.5261769   9.5452648  38.6660051   6.1715347   8.7516916  39.0668821
   5.8509308  10.2083695  38.8094163  53.1582165  73.8735723  49.8054600
  53.7386894  73.3618546  50.3688669  52.2812796  73.5450411  50.0036430
  69.9888182  69.4602251  55.2865982  70.9024525  69.2973328  55.5210495
  69.5262194  69.4788599  56.1243868   2.9713014  80.6836128  55.5811405
   2.5104767  79.9963617  55.0999403   3.3435112  80.2357292  56.3408041
   7.4852192  47.8059244   4.8424125   7.7808601  47.1329737   4.2292500
   7.2000605  47.3176241   5.6147325  22.0012474   3.8339654  56.7157459
  21.5242124   4.2193988  57.4506664  22.9240632   3.9565626  56.9384909
   1.7452881  78.6570072  54.1695499   1.6313528  77.7066135  54.1697884
   1.2461504  78.9578819  53.4102297  57.2224474  29.7925258  60.7592678
  56.5889883  30.5064416  60.6865644  57.3058462  29.6412730  61.7007589
  42.5046253  48.1810379   1.5936039  42.3869371  49.1243935   1.4819439
  43.4532404  48.0618477   1.6400155  71.9988108  76.6672182  47.7101469
  71.8091583  75.7883024  47.3818684  72.8149128  76.5687847  48.2005787
  78.3870173  72.3968458  40.7757092  78.5526276  71.9016266  41.5779305
  79.1525030  72.2266150  40.2268171  52.6913261  65.6471252  67.2165012
  53.3134842  66.0102510  66.5861940  52.3776579  64.8411655  66.8062973
  78.9271975  78.6952734  65.0216341  78.7715197  78.1430674  65.7878399
  78.4313154  78.2751751  64.3188953  77.2472715   4.1134220  36.5158272
  77.9296875   3.4517825  36.4028144  77.2929049   4.6429706  35.7197571
  82.6345539  53.9627028  46.9158602  81.7674446  53.5585165  46.8843126
  82.5988007  54.5475340  47.6727772  81.0684109  76.5919304  61.4757299
  80.9555149  75.7357502  61.8885708  81.4493847  77.1402121  62.1616459
  60.0440550  75.8180523  54.2584419  59.2424202  75.9397221  53.7497091
  60.5595255  76.6057873  54.0852404  61.7757034  17.8960991  62.0384312
  60.9840155  17.3879719  62.2152519  61.5980244  18.3345711  61.2063265
  42.3887587  35.3274131   2.6864272  42.4761057  36.2627149   2.8703111
  42.4433041  34.9083447   3.5452855  84.4495392  63.2153368  63.0246401
  84.9988174  63.9981794  62.9835844  84.5664787  62.8871870  63.9161968
  18.6499500  65.0459385  60.4063272  17.9434288  64.8083639  61.0068464
  18.5496819  65.9894323  60.2798462  19.0031135   2.8573605  28.9303231
  18.0914795   2.9743174  28.6629725  19.0020192   2.0446701  29.4360542
  21.9506955  37.8538537   2.9453060  21.3847351  38.2535911   2.2849035
  21.4208221  37.1507668   3.3209836  13.6166954   1.9743218  30.0589395
  14.2898905   1.3452521  29.7994947  13.6736012   2.6698619  29.4037914
   5.2522892  79.3330050  35.0365043   4.7261643  78.6603594  35.4689097
   5.7349509  79.7537184  35.7480335  80.7001877  72.0964241  39.5373440
  80.9476852  71.5123796  40.2541876  80.3623772  71.5124178  38.8583398
  50.4312658  44.0770102   3.8293877  49.9038744  44.8697805   3.7314004
  51.2308836  44.3734980   4.2640582  18.7247992  17.8184497  45.5451107
  18.7440336  17.3053288  46.3529301  19.3291271  18.5428739  45.7070684
  11.5815449   9.0216476  59.2112827  10.7055724   9.3305731  59.4425154
  11.4275658   8.2392973  58.6817074  72.6440620  58.0923176  39.3305635
  71.8908501  57.8188372  39.8541188  72.2986174  58.1816292  38.4423518
  19.9047184  78.5760498  38.9516068  19.1137719  78.4320259  39.4711185
  19.6026146  79.0642881  38.1857157  78.9825058  75.5370283  42.5925922
  79.8696613  75.7018185  42.9120064  78.4131575  75.9381056  43.2492590
  17.0607233  18.0673480  51.4114237  16.4113021  17.3748887  51.2890148
  17.3679161  17.9513896  52.3105431  21.9291902  22.0877409  39.3478942
  22.8197241  22.2603393  39.6534944  21.4138556  22.8202319  39.6857071
  10.4724586   0.3992549  67.4300385   9.6264642   0.2677245  67.0019913
  10.8506322   1.1577328  66.9851494  55.3801966   2.5015458  42.7362108
  55.8887911   3.1851602  42.3000574  56.0108995   1.7997906  42.8974056
  19.8252344   5.9969103  30.8162427  20.3020859   5.2824026  30.3939581
  20.0552583   6.7731214  30.3055406  24.2956090   5.0185335  60.3778791
  25.0271058   5.2846396  60.9349537  23.7842655   4.4208124  60.9233046
  36.4500165  15.8527076  35.6864953  36.1195230  16.4278042  34.9963713
  35.6699729  15.4153562  36.0277963  71.2792683  77.8854704  17.6408029
  71.5865469  78.1738424  18.5002518  71.6865540  77.0282745  17.5160491
  47.1558285   2.7829322  15.9208524  47.3697901   2.9536429  16.8380809
  47.6107311   1.9658104  15.7168674  38.3454752  79.5277166  51.7992544
  38.3973861  79.3142319  52.7308989  38.4696245  78.6894321  51.3541651
  33.5493684  55.5594254  29.3106794  33.8147354  54.9736309  28.6016989
  34.1506195  56.3014174  29.2460203  53.8545895  37.9563737  62.4912357
  53.4156084  37.2909212  61.9614220  54.6677446  38.1392407  62.0205259
  66.6743565  70.9158611  31.8223262  65.7642651  70.6199884  31.8428421
  66.9904375  70.7804203  32.7156234  19.6303831  80.6730019  47.0590448
  20.1930700  81.1533304  47.6664162  18.7530838  80.7489267  47.4342966
  38.8168979  11.5245676  46.3852596  38.9462280  11.2231123  47.2844982
  39.7026873  11.6529393  46.0459518  71.3916445  78.1936836  61.0890245
  71.3938856  78.1822586  62.0461559  70.7820606  77.4980402  60.8426189
  10.1384721  81.1397198  15.3312266  10.5180274  80.4793581  15.9109616
   9.3991600  81.4950636  15.8245623  51.6600990   4.9705091  47.8006983
  52.5979090   5.1023352  47.6615477  51.3690233   4.4863963  47.0279503
  32.3148632   5.9968704  48.2285452  32.1162343   6.3073003  47.3451328
  33.0225277   5.3639722  48.1065464  71.6129160  67.3137760  49.6807957
  71.7180109  66.4629221  50.1065111  72.2910833  67.3290873  49.0054560
   2.3297824   7.5293535  29.2118001   1.5972938   7.7654433  28.6426306
   2.0383678   6.7355710  29.6603751  21.1637092   7.0509934  61.9574976
  20.2404428   6.7989457  61.9407272  21.3559961   7.3160732  61.0580587
  39.2873335  25.4195929  11.0084212  39.8546028  25.6305957  11.7499840
  39.1961193  24.4672728  11.0400081  28.9749122  48.7222672  10.6410909
  29.3085051  49.1898966   9.8754078  29.7572684  48.3737993  11.0685456
  38.2626629   9.2271680  45.0566530  38.9557886   9.1767311  44.3984222
  38.2868433  10.1344073  45.3608942  20.5384636   8.3088601  39.8161197
  21.3228655   7.8529209  40.1211882  20.3657484   7.9360878  38.9515734
  38.5238671  10.5581462  49.1232109  38.6972785  10.7801723  50.0380135
  37.5694990  10.5700624  49.0506172  41.5390396  10.1581156  62.4964952
  42.4499607   9.8806703  62.5938702  41.1204004   9.8979223  63.3170271
  21.5094471  16.5447772  34.0961981  21.2377834  15.7929230  34.6226430
  22.4179482  16.7016590  34.3535805  23.4505463  61.5357542  25.9399724
  23.8509703  62.3289967  25.5840755  22.5794172  61.5089035  25.5441904
  17.8603530  15.8897614  39.3634319  17.1822679  15.2300966  39.5092893
  17.3904812  16.6396010  38.9984775  24.3601060   5.7889575  32.3852658
  25.2526760   5.8709610  32.7211595  24.0068460   6.6777217  32.4244666
  46.7359257  10.9784997  40.0276566  47.6354980  11.2991703  39.9630785
  46.3804626  11.0829902  39.1450691  15.2011061  72.3346043  60.3532124
  14.4701219  71.8226957  60.0070286  15.1686609  73.1580687  59.8662996
   8.4069479  72.6974297  54.2775965   9.3106902  72.9225349  54.0566730
   7.9089069  73.4926128  54.0882158  72.6214075  80.2975464  36.7625427
  73.2307529  80.2752686  37.5003982  72.6760292  79.4216871  36.3802814
  27.3102403  14.4881725  35.5858111  27.1919060  14.9833202  34.7752213
  26.6565013  14.8491657  36.1845922  46.3529682  56.0127831   5.1741737
  45.5275679  56.2123823   5.6158781  46.5391779  55.1048517   5.4133803
  29.8879695   4.8624760  49.1533279  30.7316446   4.8932016  48.7022161
  29.3307686   4.3324789  48.5833597  66.9637823  78.3083248  50.0919247
  67.7136135  78.8147116  50.4042673  66.2020111  78.8368750  50.3297663
  63.9077520  71.0643387  64.6642923  63.1397438  70.8941555  65.2096653
  64.2610836  70.1960897  64.4705534  84.7999287  65.4290342  22.3789167
  84.7334194  65.7272053  21.4717770  85.2511406  66.1409616  22.8325701
  12.9944468   1.0808574  24.3622184  13.2149851   0.1725794  24.1557574
  13.8410223   1.5139885  24.4714856  11.3829184  54.8926592  54.0956211
  12.1286356  54.8257351  54.6919918  10.7249427  55.3825188  54.5889187
  12.5771999  68.6484241  15.3335619  12.2448874  68.1400824  16.0734165
  11.8859696  68.5911989  14.6738970  28.6316299   7.5892723  37.9180861
  28.3235908   7.0583075  38.6525393  28.9849997   6.9542748  37.2950768
  59.8964930  26.3622332   5.6930190  60.7571650  26.5631461   5.3254414
  59.3178415  27.0314717   5.3276223  25.2587533  15.4539466  31.4484406
  24.4080138  15.8893192  31.3943791  25.7076120  15.8940852  32.1702671
  27.2268820  27.9354692  22.8831744  27.7110219  27.5253034  22.1665120
  27.9043984  28.3068800  23.4482026   3.7940702  74.5931768  36.5828013
   3.9396852  74.0423632  35.8136249   3.5387304  73.9797354  37.2718072
   3.8109630  77.4400282  36.7320061   4.0142426  76.5209866  36.9059968
   3.4522319  77.7663755  37.5572610  19.5994806   1.0045484  13.3721375
  19.4078529   0.2440999  12.8232944  20.3946280   1.3791786  12.9931605
  37.8630686   8.9868712  22.2267509  38.2149553   9.3832338  21.4296913
  38.2431722   9.5020092  22.9383588   1.6294210  72.8276062  66.1373281
   0.8004016  72.7499628  66.6094828   1.7235352  71.9922066  65.6796408
  11.6412878  79.1658831  45.8024740  11.5168798  80.0924110  46.0081625
  11.0799325  78.7047052  46.4257145  20.6930923   3.0854353  38.0049300
  20.9520912   2.4590982  37.3290205  19.9566865   3.5613430  37.6209354
  12.1501040  71.9387579  34.3429208  12.5480068  72.7459288  34.0167546
  12.8644276  71.4821768  34.7873354  35.0459290   9.4970143  44.3453550
  35.7590866   9.2620796  43.7516880  35.4828262   9.8908031  45.1005268
  24.4733787  18.1303239  25.1771355  24.9080729  17.9107285  24.3530893
  25.1657414  18.0737007  25.8356667  39.9935317  10.0460982  17.3211157
  40.6048107   9.8714477  16.6055286  39.9935484   9.2405331  17.8381228
  40.0962019   3.3245304  44.1735220  40.4090643   3.0460334  43.3128309
  39.4404817   3.9957094  43.9843559   5.7316542  14.5092797  39.8045635
   6.4376724  13.8646781  39.8520827   5.3980392  14.4336402  38.9105773
   3.7823308  77.8460121  39.3655777   2.9409546  77.6756573  39.7890115
   4.3135047  77.0763969  39.5699763  44.7266579   7.9205364  68.5354185
  43.9611530   7.4343401  68.2290697  44.7289419   7.7909034  69.4837999
   8.4616941   3.6443508  28.7024045   8.1540972   3.4669510  29.5913053
   8.4718663   2.7869844  28.2769036  22.0197701  76.7003250  61.7260361
  22.7093673  77.3558187  61.6210651  21.5650988  76.6940165  60.8837366
  16.4428318   8.0358648  42.6666403  15.6224370   8.3632696  42.2978735
  17.0831203   8.1487763  41.9641352  15.1124120   9.5628756  16.0007989
  15.6762171   9.6573299  16.7685449  14.2665195   9.2909586  16.3568306
   2.8801143  77.5674248  43.6508799   3.3599192  78.3807564  43.8074446
   3.4340978  77.0753908  43.0448818  66.7975140  63.5457182   9.0531296
  66.3660383  63.9521170   9.8047286  66.4072371  62.6735926   8.9956188
  60.8842993   9.5251286  24.7754645  60.4164600   8.7164140  24.5672822
  60.8592033  10.0320482  23.9639020   1.9175015  74.5788813  61.6047716
   2.4210395  74.2110157  62.3309612   1.1248977  74.0435123  61.5674543
  36.1266947   5.4893762  58.3792400  35.7599497   4.9296024  57.6948547
  36.7702842   4.9361128  58.8218689  60.5634737  70.1664448  39.6737576
  60.1331663  70.0778055  38.8233376  60.4070902  71.0760069  39.9276662
  81.1719036  73.7477255  66.4685440  80.4989910  73.4629679  65.8502054
  81.7468739  74.3133783  65.9531021  76.9803143  71.8818903  49.0464878
  77.8725672  72.1106768  49.3068171  77.0519400  70.9913254  48.7029886
  13.0169570  71.2618399  46.7080164  12.9540265  71.2112570  45.7542276
  13.7056744  71.9068718  46.8687344  18.0482042  62.4811554  31.8433189
  18.4194136  62.5673628  30.9652519  18.0934858  61.5437317  32.0315218
  41.9544554  12.4523151  41.8283701  42.4559593  12.2796488  42.6251793
  42.4859905  13.0831206  41.3427925  24.9001384  75.1386738  38.4001374
  24.3541574  74.7490025  39.0829921  24.4328785  75.9340668  38.1446886
  79.5080662  58.7081242  43.5957956  79.8310614  58.7500238  42.6957130
  80.1633072  59.1822910  44.1077089  55.4949379  70.8466148  31.1429071
  55.6971931  69.9149990  31.2290549  55.7334280  71.2228251  31.9901514
  22.5250149  80.1334858  34.9332452  22.0023990  80.0031662  34.1419649
  23.4279346  79.9884605  34.6505117  34.1814804  16.6577733  58.3455038
  34.4371128  15.8281171  58.7486839  34.9885488  16.9930172  57.9550171
  29.9983764   8.2042432  27.2057939  29.6070576   8.3852834  26.3512039
  30.8194017   7.7558321  27.0031190  24.4352746  21.4186764  46.0308361
  25.0724363  21.3654399  46.7431736  24.8149848  20.8890009  45.3297710
  23.4759307   6.6302556  58.3227110  23.9906383   6.1211377  58.9488935
  23.1340861   7.3637521  58.8339424  68.3831120  69.0149832  50.9991646
  69.2152309  69.3193150  51.3613653  67.7957678  69.7659636  51.0845566
  84.9935246  78.0364037  28.5275865  85.8238697  78.1283760  28.0603647
  85.1649189  77.3683929  29.1913795  72.9925346  51.6824150  38.9320731
  72.3827648  51.0561228  38.5419703  72.4607325  52.1786880  39.5542741
  50.9379292   3.7166849  45.4945517  50.5323792   2.9642585  45.0637197
  51.6203403   4.0015697  44.8867846  59.6238041  46.4602518   5.5836606
  58.9933014  46.2327433   4.9003300  60.2844524  46.9872284   5.1341391
  50.8745766   2.4277933  33.7484217  50.5786085   2.4163279  34.6586442
  50.0678444   2.4015903  33.2339025  46.8078709   9.7516096  52.0242691
  45.8600044   9.8569387  52.1060228  46.9667244   9.7371274  51.0804558
  20.3289557  13.0472279  58.5557365  19.9721563  13.6480796  59.2098808
  21.2245393  12.8786802  58.8485670  23.9999866  22.1729493  31.8790460
  24.0827370  21.9546247  30.9507561  23.3546209  22.8794861  31.9023180
  36.9676566  14.8276401  54.9896383  36.5338063  15.6788039  55.0490236
  37.7171659  14.8990905  55.5807066  43.6377382   5.2035910  43.8857269
  43.2529116   6.0154051  43.5554266  43.2125139   5.0638670  44.7318316
  76.4894724  61.5810728  55.9788656  76.7361641  62.4236679  56.3601875
  76.8013620  60.9321928  56.6096735  17.9529357   2.8868625  33.9347696
  17.2120321   2.3711959  34.2531753  17.6105297   3.3521703  33.1715679
   7.3902309  79.7947216  46.9444513   7.3842150  78.8976574  47.2783327
   6.5226781  80.1365662  47.1606207  79.0520477  55.6767130  52.5211096
  79.6875906  55.0758648  52.1321392  79.0994787  55.5001831  53.4606934
   9.6485108   9.1269088  52.8445673  10.6023455   9.1782284  52.7829456
   9.3563324  10.0373685  52.8006697  12.3744988   1.4075939  61.3195562
  11.7886949   1.4666378  60.5648518  13.0637562   0.8045635  61.0411501
  73.8123274  62.8729677   5.3365499  74.4382811  62.9349422   4.6150434
  73.1494617  63.5337353   5.1359844  16.2338555  75.2546883  38.5652494
  17.0091462  75.5950212  39.0117168  16.2429178  75.6832027  37.7093720
  10.4470527  12.3913574  14.8247504   9.7291350  12.7097332  15.3719831
  10.0333083  12.1741962  13.9893532  80.8358288  60.0056076  68.0063343
  80.3606892  60.8313417  67.9133940  80.2961636  59.4843292  68.6006880
  31.9166732  16.4435041  35.6976104  32.0399857  15.5775023  36.0862827
  31.6702652  17.0035350  36.4337373  38.3004498   1.2335746  29.7362638
  37.5659013   0.7224576  30.0760126  38.0002570   2.1415097  29.7783351
  36.3508868   6.4566070  36.6478634  36.8713498   6.5375894  35.8486176
  36.9841838   6.2107670  37.3221993  66.9362926  78.7269926  12.5659585
  67.4720478  78.8086414  11.7769516  67.5164747  78.3181000  13.2081676
   2.9067832  28.4251499  32.5230861   3.2513496  29.0141535  31.8518329
   3.6405957  27.8482628  32.7351069  10.7128608  57.8951931  62.1613789
  11.1375093  57.3113298  62.7898788  10.6880891  57.3930359  61.3468504
  42.9959774  12.0739543  20.2058649  42.9437304  12.1751797  21.1562634
  43.9248514  11.9217777  20.0319076  24.4299364   2.7282274  54.5436430
  24.4833565   3.1126904  53.6686754  23.4913874   2.6389110  54.7091150
  30.5297041  54.8278427  67.4905443  30.3109455  54.1193104  68.0958176
  30.0157356  54.6393347  66.7053461  29.7563267  24.4688582  27.3471212
  29.4377422  25.0777125  26.6807628  30.0226593  25.0293255  28.0759382
  35.4065919   8.3660460  68.2321167  35.9403777   7.6098508  67.9882479
  35.5648303   9.0050262  67.5372076  31.1674333   9.7728670  37.3893332
  30.8062983  10.5471027  37.8210425  31.5647388  10.1098299  36.5863180
  75.5729246  62.5367403  32.6093388  75.5837631  61.7670536  32.0403910
  76.4938879  62.6933336  32.8179955  17.9456747   1.0641445  47.6903343
  17.0887554   1.4873964  47.6376152  18.5728467   1.7775591  47.5723267
  78.1914949  78.7981749  18.9649534  77.6707602  79.4075775  19.4881117
  77.8692722  77.9321527  19.2147851  34.8684740  76.6807747  18.3983898
  34.0960455  76.5286255  17.8539288  34.7758484  76.0628748  19.1235471
  85.3475285  79.6505022  68.2048845  85.9538746  78.9888525  68.5377455
  85.1010609  80.1596165  68.9770794  15.8350253   3.9215696  69.9549007
  15.0809801   4.5080304  69.8939848  15.6461871   3.2227898  69.3285799
  14.7334003  17.2241044  59.5257950  14.8497689  17.7076507  60.3436422
  15.2052951  17.7409208  58.8727617  13.0444300  75.1178789   7.1020615
  12.5748312  75.9021473   7.3860252  12.5903392  74.8419285   6.3058925
  57.3374891  52.9066610   0.9418178  56.6101599  52.8398609   1.5604989
  56.9223452  53.1207609   0.1063244  23.1034350  73.8333654  48.2825851
  23.7320280  73.1221437  48.4061146  23.3486247  74.4862843  48.9381838
  33.6370397  17.0953572  54.0449047  33.5918403  16.3917327  54.6922827
  33.7031627  17.8958976  54.5654774  36.4396763   0.8340158  17.2056007
  35.5333304   0.9095016  17.5040472  36.8872428   0.3709395  17.9137504
   4.2481580  62.0828390  37.0089078   4.2600110  63.0187464  36.8084836
   3.9273378  62.0347977  37.9094625  41.1467123  12.0775604  50.1240444
  40.8359861  12.1782923  51.0237837  40.6470776  12.7232754  49.6243954
  22.2211766  25.5992031  54.1194010  21.8334818  25.7518721  54.9811554
  22.5367832  26.4595437  53.8429308  70.7888746  75.5837870  50.4048109
  71.0641241  76.3093996  49.8444939  70.9138870  74.8034096  49.8647928
  16.4358497  72.0878553  48.9732075  16.9717681  72.8165770  49.2862415
  15.8076119  72.4922895  48.3748913  43.7564230  12.2938454  55.8272696
  44.5419502  12.1070230  55.3131914  43.9906216  12.0452118  56.7214537
  26.8002915   1.2554951  31.2963343  27.3803425   1.2183247  32.0568538
  26.5872359   2.1839796  31.2027597  45.1372480  12.9112232  60.2081203
  44.4107103  13.2965779  59.7183466  45.4146004  12.1645439  59.6772957
  42.2040892   4.4807872  36.5999770  42.7587128   4.6117914  37.3690438
  42.8203201   4.3842810  35.8739090  56.5530195   0.0129286  25.1907778
  55.9227576  -0.0739511  24.4756174  56.1228504   0.5918089  25.8201313
  82.2013283  66.3619757  46.5287638  82.9960632  66.0986042  46.9927168
  81.4897823  66.1489344  47.1325397  77.4866295  72.0053291  28.1008625
  78.2250309  72.5607681  28.3508348  77.7036285  71.1437845  28.4570742
   7.8599858  68.2552481  64.7662306   8.6550933  67.7241516  64.8106527
   7.9584855  68.8934803  65.4727650  50.3501987   3.2624093  30.1887465
  49.4737291   3.1715053  29.8148894  50.3477716   4.1280964  30.5971718
   3.9513609  76.5957546  61.2671661   4.3985957  76.7821741  60.4416609
   3.1895888  76.0741806  61.0143995  39.0380239   5.6661564  43.2337046
  39.6592379   6.3544333  43.4716177  38.3918238   6.1069882  42.6820469
  36.3674688  13.7157917  32.9461408  35.9675503  14.0774989  32.1552777
  36.2718940  14.4075847  33.6007547  47.3271608  12.1517110  55.1914215
  46.5605259  12.2052145  54.6207714  47.7445126  11.3234162  54.9548244
  45.5933475   0.8866734  42.2618580  45.4456711   0.7751732  43.2009983
  44.9196577   0.3473172  41.8477678  62.8915787  80.0775814  43.2950544
  63.8162851  80.3021431  43.1914902  62.4645853  80.4618645  42.5293922
   8.5756981   9.8273838  65.4492903   9.3966293  10.1473236  65.8233786
   8.7519342   8.9118087  65.2327394  12.7787387  62.3443127  53.1988287
  11.8583500  62.1925497  53.4135008  12.7549124  62.9389000  52.4490738
  25.6938839   6.5275091   4.4007975  26.5289712   6.3139218   3.9845741
  25.7600689   7.4601507   4.6058118  41.4164591   4.5535910  63.7927818
  41.2406349   4.4201154  64.7241783  40.9065866   3.8733238  63.3528948
  34.4286203  19.3989146  17.4928701  34.1523099  19.6793449  18.3653617
  35.0739908  18.7109840  17.6555991  33.1863809  20.5787182  32.2429967
  32.5837898  21.0317230  31.6531634  32.6307464  19.9743295  32.7351522
  37.3218966  22.5644183  51.7318439  38.1506634  22.8612232  52.1077251
  37.3031187  22.9523635  50.8569860  41.0583591   2.2696353  41.8285322
  41.6851854   2.9184997  41.5086937  41.3752031   1.4373048  41.4777231
   8.9566451  56.8477345  47.1430874   9.1124851  57.1165800  46.2377310
   9.7109926  56.3014650  47.3639488  77.1711302  69.3695927  48.6021948
  76.2825632  69.0368080  48.4759521  77.6804209  68.9650679  47.8999043
   8.4042639  11.7018414  38.8204408   9.2044246  11.1873698  38.7141657
   7.7080482  11.1322260  38.4932518  37.8488231  25.3591871  58.1418228
  38.5702419  24.8695707  58.5368681  38.2680845  25.9155226  57.4853611
  25.7741117  15.6013858  51.9538260  25.3164053  16.2500322  51.4190388
  25.0754738  15.0719154  52.3382711  34.9830580   6.2578297  45.2670050
  34.1427183   6.2813246  45.7247210  35.0070834   7.0745075  44.7683144
   5.0565857  80.0154972  50.3859186   4.9615926  79.1964483  49.8997402
   4.4465405  79.9311876  51.1186981  56.1845875   9.2693263  55.3949404
  55.7010460   9.6779251  56.1128998  55.5428934   8.7037349  54.9653292
  45.7175398  16.3816082  24.1563940  45.2953577  17.2285640  24.3001318
  46.6545773  16.5680766  24.2148995  41.1507797  17.7085662  33.1028557
  41.8310213  17.5997186  33.7674260  40.6786108  16.8759286  33.1048107
  29.0713477   1.7995220  49.5566177  29.5103002   0.9489123  49.5604706
  28.9765787   2.0159423  48.6290359  17.9046738  73.3938122  58.8207245
  18.0704546  73.4757710  57.8815556  17.0862055  73.8696432  58.9618826
  15.7101083  80.1798439  63.2035637  15.8479774  80.8401108  62.5243950
  16.3756335  79.5143223  63.0292273  50.0721741   7.1925646  51.8617439
  49.7116327   6.3680708  52.1880102  49.6258450   7.8679305  52.3725319
  41.8238544  11.5587687  32.0591879  41.0648346  11.8604505  32.5583029
  41.4534807  11.2043810  31.2508178  52.0538712  10.9881985  20.3477979
  51.3198137  10.4568005  20.6560349  51.7197084  11.4276624  19.5658529
  41.1774397  15.5332196  36.4718533  41.8859148  14.9426305  36.2159157
  40.3799057  15.0902319  36.1821485  36.9837189  11.2801254  27.9982018
  36.4628077  11.6308212  28.7206244  37.1016908  12.0224714  27.4055505
  39.6499395  18.3753943  36.3257313  40.4541111  18.2137597  35.8323574
  39.8888707  18.2027578  37.2364116  26.3288713  68.2887602  20.0016737
  25.8361530  67.5713682  19.6031630  25.8642292  68.4741259  20.8177495
  25.6616688  15.7627368  42.8083849  26.5113497  15.8920431  43.2297611
  25.0682378  15.5459356  43.5274601  43.8371229   0.6706838  48.2776308
  43.7482500  -0.1784755  47.8448915  42.9736090   1.0747056  48.1919575
  28.3136606  22.8244090  50.8598280  27.5972748  23.2112074  50.3564262
  28.9144588  23.5522628  51.0195255   3.7674698  57.6807880  37.5613308
   4.5313609  58.2563066  37.5229168   3.2778752  57.9833221  38.3261847
  31.8516278  14.6000528  20.6378531  31.2663746  13.8722587  20.8476758
  31.5498948  14.9117005  19.7845852  26.8309307  78.4520531  27.7331161
  26.6568232  77.9319239  28.5175800  26.1958599  79.1670656  27.7739906
  42.0503664   8.1750250  46.8125296  42.9795551   8.3880222  46.7260981
  41.7369461   8.7494290  47.5111437  26.3837385  20.6043863  48.3528519
  26.8999147  20.2144051  49.0583372  26.4018774  19.9510944  47.6534843
   0.8814001  78.6274910  31.2143159   0.9572894  77.6738119  31.2453270
   1.3338543  78.8776970  30.4087639  27.6833987  22.7988672  22.8129911
  28.5719442  22.4847364  22.9804468  27.4758625  22.4745107  21.9366598
   5.3200847  53.4767962   8.1128401   6.2766618  53.5031128   8.1351805
   5.0473112  54.1665649   8.7178612  38.8541937  14.1275382  35.3699827
  38.2245898  14.8177409  35.5784321  38.3433127  13.3188248  35.4048228
  70.2316999  48.6265516   1.3942057  69.3864775  49.0523100   1.2508154
  70.4320908  48.7959242   2.3147421  23.5530996  15.3723752  23.8626409
  23.4553313  14.4225168  23.7959909  23.5571599  15.5472851  24.8037171
  37.4797583  23.9604568  49.4976711  37.6168537  24.8688197  49.2287588
  36.9259548  23.5884500  48.8112736  46.4960814  29.3599248  59.9823141
  46.9122982  29.2235065  59.1312075  45.8283043  30.0258303  59.8183775
  33.4481263   5.8094949  34.3022060  33.1136370   5.5920464  35.1723003
  33.1358504   5.0995421  33.7412405   0.3555397  71.8146944  22.1723628
   0.3212795  72.4525213  21.4594579  -0.1203451  72.2321701  22.8903317
  49.4643688   8.8579494  49.2987299  49.5646715   8.0966359  49.8701954
  49.5273113   9.6096706  49.8879528  25.5368900  62.0115185  51.2236929
  25.8082700  61.1450291  50.9207439  25.1056814  61.8478060  52.0624352
  53.3458710   1.4412308   7.2306138  54.1108561   1.4620145   7.8055876
  52.9058838   2.2767942   7.3870677  63.9536810   6.6337097  25.5409122
  64.5102453   5.8575642  25.4771805  63.2253027   6.4556348  24.9459410
  32.4210978   5.6981260  58.5538530  32.8829980   6.0156828  59.3297625
  31.6774344   6.2930459  58.4575987  40.3025770  14.2303205  53.5407925
  39.7530460  14.0722072  54.3084192  39.7082663  14.6133578  52.8955746
  21.4680600  77.0490599  28.4169745  21.4919829  78.0005980  28.5181522
  20.6196570  76.8726873  28.0103564  47.8102541   4.7664130  46.3756514
  47.9384089   4.7139218  45.4285240  48.6029196   5.1928502  46.7013311
  23.2521629   6.5209019  45.8209324  23.7072992   7.1831882  46.3409901
  23.3999562   5.7018727  46.2937737  28.6223078   8.1043565  24.7546506
  27.9303646   8.2891172  24.1195846  29.4260669   8.0878448  24.2351055
  41.6494846  12.0639551  45.9293365  41.5336037  12.9864216  46.1570692
  42.1868229  12.0784521  45.1373243  33.5034323  19.2120528  55.5705118
  33.0677390  19.9202943  55.0963831  33.0049825  19.1257048  56.3831139
  15.5796015  25.0744772  57.0165586  15.5032468  24.4831705  56.2677193
  16.5224528  25.1843452  57.1398211  16.2382138  80.3199768  23.7382221
  16.1252141  80.9482861  23.0249977  17.0840359  80.5462742  24.1250134
  43.9581060   9.4354808  64.1821718  43.3852148   8.7236547  64.4673634
  44.8433542   9.0860116  64.2843103  20.6780648   5.4038268  45.3416634
  20.0408244   6.0975945  45.1718283  21.5125895   5.8630311  45.4361677
  26.5074205  58.3901548  39.7607613  26.3007164  59.0303421  39.0798330
  26.8921304  57.6525879  39.2872334   4.7961956  73.1524134  46.4921331
   4.0930465  73.5713768  45.9958696   5.4763365  72.9765606  45.8419704
  30.0395131   8.3191651  40.3165340  29.9489570   8.3465338  39.3640184
  30.7870507   7.7412349  40.4695511  11.2235475  67.0867586  43.6832571
  10.6869316  67.0983791  42.8907013  12.0362639  66.6574812  43.4159613
  13.8476217  79.3345165  24.0967464  13.4702647  79.7341251  24.8804235
  14.6598411  79.8187876  23.9483690  15.6557345  13.5626733  47.2771645
  15.2024627  13.7200117  46.4488983  15.7626629  12.6122129  47.3148918
  34.2806768   5.5849236  30.3629136  34.7671866   6.2752664  29.9123955
  33.3608842   5.8002985  30.2085447  39.2590141   3.8950408  39.6372581
  39.5771670   3.3254233  38.9368677  40.0224066   4.4149846  39.8885012
  23.3049345   2.5034532  42.0830202  23.1892037   1.6688389  42.5371742
  23.2511878   2.2799756  41.1538267  26.3854051  17.3102534  26.8942380
  26.8585753  16.4982462  26.7126179  26.5138054  17.4578369  27.8312349
  78.7703800  69.6609688  29.2010975  79.0440321  68.8562393  29.6412730
  79.5754385  70.1711082  29.1124010  28.4153247  19.3621051  65.7058859
  27.6075792  19.4494283  66.2120056  28.1350613  18.9895415  64.8698950
  49.3740559  14.9584305  54.2120314  48.6234617  15.5203652  54.4045544
  49.5478773  14.5008075  55.0345898  38.3066964  29.5725369  55.8664703
  38.5835266  30.4877806  55.8225536  38.5399675  29.2939806  56.7520380
  15.1347375  79.7939062  69.4402266  15.8629382  80.1002979  68.8997841
  15.2574551  78.8460398  69.4924164  18.8137019  77.8061533  44.2583990
  19.0931356  77.5227499  43.3878613  19.2673612  78.6375952  44.3966961
  11.5188289  71.2172556  30.3732586  11.1653948  71.8779564  30.9689021
  11.6688550  70.4511547  30.9271598  60.7349539  20.8496189  42.6564646
  60.9211159  20.4425120  41.8103933  59.8787642  20.5021048  42.9062653
  47.8722620   7.5573784  21.8364429  47.3447752   6.7589861  21.8601418
  47.9715347   7.8062201  22.7553844  28.8528824  12.3388791  42.5092030
  29.0887284  13.2364452  42.7436924  27.9593587  12.4061811  42.1725750
  79.7393084  70.3246450  37.7295399  78.9968443  70.8005571  37.3574018
  79.3625021  69.8171425  38.4483504  42.7456999  17.4496686  35.5850387
  42.1568871  16.7389739  35.8388901  43.6031866  17.1790528  35.9132385
  34.6355700  29.0896606  66.5070868  35.3532720  29.3422484  65.9262800
  34.8571563  29.4879127  67.3488283  25.5763173   8.7120426  39.3908739
  25.3887582   7.8728509  39.8113608  26.2154770   9.1311258  39.9671340
  55.2330446  11.6075563  67.3605251  55.2417183  11.5041161  68.3120823
  54.3472528  11.3549006  67.1002007  33.1155324   8.9906043   5.6374162
  32.3054600   8.6546677   6.0210353  33.0023909   9.9410850   5.6332171
   0.5254466  77.5040913  56.5068293   1.2434468  77.1625614  55.9738493
   0.2989062  78.3388662  56.0968781  45.5113649  74.8716497  31.5982556
  44.7176313  74.7894812  31.0696101  45.9719229  74.0425062  31.4692998
  17.3591197  72.0569611  30.8588982  16.7092061  72.1152782  31.5592146
  17.9687512  71.3804150  31.1536288  62.0598030  37.4917531   8.4942037
  61.3322353  37.4701333   7.8725880  62.6286936  38.1912661   8.1728345
  53.1430912  14.5284390  37.8734970  53.8088608  15.1832247  37.6631689
  52.9452705  14.6764946  38.7982559  28.2679749  20.5445051  45.2525187
  29.1935253  20.7713437  45.1623535  27.8148913  21.3875866  45.2653074
  45.0659418  18.1620109  26.7888761  44.2468214  17.8387988  27.1641231
  44.8299789  18.4428549  25.9047484   2.6668328  79.9908543  41.6021299
   3.2664403  80.1906967  42.3209906   3.0012265  79.1742039  41.2313223
  31.5006304   0.5716704  60.7415009  31.7940259  -0.2846027  61.0528660
  32.1858692   0.8539148  60.1356840  42.8515148   9.8836166  35.9689379
  42.0200872  10.3578889  35.9741735  43.4185886  10.4006469  35.3968000
  66.1756849  66.2522697  53.4448385  65.4506636  66.8492651  53.6296940
  66.9373560  66.6682148  53.8486767  80.4144859  72.9232407  29.2733741
  80.6970882  72.0977879  28.8796902  81.0914612  73.5520411  29.0232706
  49.4382286   7.2916406  37.8847528  50.2322865   7.7110773  37.5534248
  49.6562338   7.0416009  38.7826324  42.6349783   1.5134157  45.3812027
  41.9554615   1.2772872  46.0126543  42.5932932   2.4683559  45.3303719
  47.2570801   5.9734565  33.1994629  46.8723822   5.1452708  32.9124999
  46.9008064   6.1116809  34.0770721  15.1366091  56.0918999  50.8658409
  14.4602311  56.5851879  51.3299656  14.6562600  55.5828953  50.2128410
  35.3667045  16.1494207  31.4540601  35.8607435  16.5448201  32.1722651
  35.6149006  16.6597009  30.6831884  25.8518195  67.3309660  48.4137917
  24.8992610  67.4043989  48.4727192  26.1758900  68.1863070  48.6959314
  56.6877222  13.5466671  37.4589300  56.7976952  12.6324308  37.1975732
  55.7907677  13.5949969  37.7896428  31.1458778   8.7022072  52.1094131
  30.3141928   9.0229565  52.4582005  31.0656142   7.7487916  52.1374893
  61.1814404   4.9035808  12.8876483  61.8236923   4.1941229  12.8674054
  60.4321289   4.5623252  12.3994827  49.5657730  10.3673410   7.5517982
  49.3714809   9.6379250   6.9632101  50.2949810  10.8250070   7.1334332
  32.7896261  73.0736017  55.0609064  33.5515952  73.0853319  54.4816875
  32.4313426  73.9593506  55.0033283  48.0160952  39.5477176  34.2496037
  48.1236744  39.5602775  35.2006578  47.4327278  38.8070440  34.0843153
  37.9670548  17.8881133  46.5957546  37.1453810  17.8588188  46.1056280
  37.8658962  18.6327875  47.1885967  53.0411816  28.8726354  46.1192942
  52.9107714  28.8539124  47.0673847  53.6960697  29.5569205  45.9810734
  44.4007587  40.7086277  64.7444344  44.7525072  40.1441574  65.4328203
  43.8868856  40.1201248  64.1914082  62.4938965   7.9816520  53.1486082
  62.8883553   7.8571451  52.2853994  61.6081190   7.6297903  53.0601788
  48.6732817  39.3322754  59.1767406  49.1379595  40.0718260  58.7851191
  48.9538908  39.3305683  60.0918865  76.6024113  34.5746160  58.9679861
  77.2293139  35.2908134  59.0693998  77.1438074  33.7862349  58.9282703
  49.7259760  25.3639650  51.9006491  49.5561838  26.2388158  52.2499895
  50.3201008  24.9637103  52.5355053  60.2161407  30.4603028  43.9888906
  60.8405685  30.3199792  44.7006702  60.5965471  29.9981141  43.2419586
  68.0099392  32.2729254  59.2143965  68.0390024  32.8789878  59.9547195
  68.9122200  31.9679403  59.1189718  56.5449524  36.2402487  32.0048165
  56.7296076  36.8235111  32.7409840  56.2022114  35.4438257  32.4103665
  46.2284851  29.8526955  49.4645834  46.6123295  30.4652071  50.0920630
  46.3323975  28.9937758  49.8740864  60.3009319  42.8200388  58.2143641
  60.7312059  42.5889015  59.0375757  59.3668699  42.7127981  58.3939743
  53.8982344  30.5521774  22.9020166  54.2460871  31.3439655  23.3122659
  52.9557896  30.5924630  23.0645370  49.0632391  32.2412539  48.6474752
  48.4733486  32.0191932  49.3678570  49.7892475  31.6233659  48.7332535
  48.4745550  33.2761431  45.5980873  48.7705612  33.1092381  46.4929342
  48.1212950  34.1653776  45.6245947  33.4958625  25.6692410  69.7370100
  33.7708378  26.5859580  69.7529268  34.2525268  25.1864123  70.0695229
  62.4655151  54.3892860  57.5168514  62.5647020  54.9636889  56.7576027
  63.3546829  54.0923071  57.7102900  50.4001856  34.3922853  60.8550978
  50.6438160  34.5974851  61.7577410  49.8069334  35.0990391  60.6005621
  66.2273645  38.8335562  56.5318775  66.6124582  39.7047973  56.4376783
  66.9343042  38.2325315  56.2968588  51.8424988  39.5976019  39.8445559
  51.3199186  40.3995419  39.8385906  52.2975445  39.6145105  40.6865025
  64.5888376  39.5003796  64.3729115  64.5990849  38.5434437  64.3529606
  64.4819641  39.7195196  65.2985382  40.8204889  51.4017677  66.1791611
  40.4632425  51.9014835  66.9132566  40.0891018  51.3190651  65.5672312
  66.8775988  41.2523174  63.0970049  67.1700954  40.7904577  63.8827276
  66.1363363  40.7372761  62.7784204  81.0818386  57.4813986   1.1468355
  81.8773460  58.0137062   1.1535143  80.3860569  58.0873203   1.4017451
   6.7373031  40.6260347  38.8421011   7.6648360  40.6000566  39.0771294
   6.2980533  40.9353733  39.6343136  51.0880184  24.2460799  54.2757988
  51.9336224  24.0937877  54.6976852  50.6064844  24.7942090  54.8954058
  53.3461761  38.9048219  46.6166592  54.0332699  39.4788480  46.9552326
  52.7631760  39.4891429  46.1319780  52.7748251  43.3916998  38.0811572
  52.0129108  43.0273008  38.5316443  52.4068117  44.0104055  37.4502850
  74.5062017  43.9351320  45.2369165  75.4586220  43.8437462  45.2090549
  74.3231297  44.2679787  46.1155128   1.8974093  20.4201770  66.2402868
   1.6322510  19.5117652  66.3841915   1.6414532  20.8744264  67.0430183
  51.9170141  21.8726063  67.1591949  52.3908758  21.1292577  66.7862129
  51.0625124  21.8525100  66.7283154  63.0618954  34.8539948  47.8616858
  62.7022219  35.0802541  47.0039701  64.0105915  34.8701477  47.7354145
  49.9861288  45.5557203  42.2529984  49.8515081  44.7072840  42.6752090
  49.5297909  46.1794090  42.8178024  66.8899059  56.1092806  48.4400225
  67.2013569  55.3359318  48.9102936  66.7772484  55.8114433  47.5373411
  63.7445974  28.2115984  43.8997173  64.0504694  29.1031384  44.0665483
  64.3707752  27.8578138  43.2680750  55.0815010  32.9240298  40.8936119
  54.6907568  33.5826993  40.3194094  54.3794870  32.6881933  41.5000677
  66.2511921  29.7770190  34.8550916  66.7905807  30.3659511  34.3274045
  66.4352798  30.0297499  35.7597876  58.2970858  39.0145564  46.0072803
  58.5737753  39.8642135  45.6641197  59.0541744  38.6969376  46.4993858
  52.7491903  39.8144197  50.3524780  52.4707031  39.0144134  49.9067545
  52.0458126  40.4408503  50.1819468  80.6077766  58.9803123  29.3438148
  81.3746071  58.7691784  29.8763800  79.8625612  58.7006569  29.8754859
  60.0786448  38.9783502  49.7343540  60.2029657  39.9069691  49.5382833
  60.2383900  38.9088130  50.6755638  49.6434355  39.4230580  37.5579357
  49.7950649  38.5047722  37.7815294  50.0789404  39.9142528  38.2545638
  45.9730482  25.5535793  59.8891211  46.5949774  25.8480263  60.5545044
  45.6692505  24.7026348  60.2050877  57.9643106  31.7906976  43.1332254
  57.9910278  31.8855786  42.1811104  58.7942123  31.3685632  43.3552408
  69.5938492  61.7929173  63.4168482  68.9188862  62.3954153  63.1043673
  69.1068220  61.0373259  63.7456656  48.1827354  51.7923164  47.7819252
  47.9118872  52.5171232  48.3454227  47.5925589  51.0752487  48.0137300
  76.3216496  55.6053209  52.1233749  77.2669029  55.7303286  52.2075987
  76.0505915  55.2505350  52.9700708  57.3879671  27.0635295  38.5404181
  57.8474855  27.6156235  37.9077506  56.7634630  27.6528287  38.9634466
  58.8242340  52.5823402  68.4630919  59.4868851  51.9308424  68.6926031
  58.2244110  52.1183777  67.8789854  44.4020605  46.5922022  55.4243422
  43.6333132  46.2415028  55.8740902  45.1460981  46.2535048  55.9222603
  53.0190992  41.7968750  43.0484200  52.2917700  42.4187708  43.0699301
  52.5987625  40.9383535  42.9985428  47.5182915  27.2522926  57.2388268
  47.4149990  28.0566502  56.7303228  46.7691755  26.7120934  56.9873524
  35.4079938  16.1751711  64.3304157  35.1999092  16.7071211  63.5623264
  35.2245498  15.2766013  64.0562820  64.2596865  29.7539163  32.0762467
  64.8403740  30.5026269  32.2121429  63.3851480  30.1376748  32.0118642
  75.3072643  63.0535603  29.5598507  76.0249186  63.5507298  29.9523091
  74.5145702  63.4864044  29.8768854  67.4092245  43.7314320  42.3463154
  66.5696430  44.1884279  42.2964144  67.7501631  43.9508104  43.2134151
  61.6456604  29.3901777  42.0283031  61.4613676  29.2967534  41.0936689
  62.2634888  28.6852598  42.2222376  63.2593870  35.2920055  67.6539040
  63.9117575  35.4100037  68.3443499  63.7737226  35.1176572  66.8656826
  52.6284599  37.1753430  38.6793399  51.7227459  36.8870044  38.5663199
  52.5972748  38.1221604  38.5422444  43.3380318  41.8668365  47.2101164
  42.5440264  42.2785568  46.8691349  43.4829998  41.1144400  46.6364288
  59.8815632  50.2575588  52.5007629  59.2674923  50.9039450  52.1524382
  60.5300474  50.7757711  52.9773712  64.1267347  42.0393229  58.8752747
  64.4935369  41.1827326  59.0942430  63.8612556  42.4085855  59.7175312
  49.3496084  40.8216238  43.0636168  48.9286089  41.6236115  43.3731413
  49.4441223  40.9496593  42.1197367  61.7948580  52.2947407  53.1667709
  61.6062546  53.2288599  53.2566690  61.9249105  51.9891739  54.0645170
  53.7165022  35.1564336  40.1767635  53.0539608  35.1969194  40.8664227
  53.4695721  35.8511543  39.5663357  44.6062183  28.5016608  56.1013842
  43.6643362  28.4448791  55.9405327  44.6914816  29.1532207  56.7973948
  70.4241657  35.8962584  33.6005998  70.1564550  36.4771390  34.3127370
  71.0720253  36.4018559  33.1098056  55.2581120  31.9319534  35.5509067
  55.7952118  32.6910377  35.3238702  54.8299599  32.1781158  36.3708591
  71.1632013  34.3549442  45.7881498  71.6978455  34.7155929  46.4954805
  71.7944241  34.1116858  45.1109362  64.1757536  36.4066625  33.8595963
  64.9722433  36.4398932  34.3894362  63.6916590  37.1950674  34.1051722
  49.7592020  52.0413208  45.6394672  50.5925560  52.3216152  46.0178661
  49.1537809  52.0227861  46.3806486  70.1801634  60.6310701  53.5958385
  70.6062269  60.8100462  54.4340897  70.8629656  60.7839155  52.9426527
  72.9359388  66.0150290  44.2985821  72.5761127  65.8392286  43.4291840
  72.2757578  65.6772566  44.9038124  61.8408680  27.7086234  61.7753553
  62.1685266  27.3109221  62.5820160  62.5449038  28.2924366  61.4930058
  51.6544867  33.3773112  46.9008970  52.5354576  33.1342292  47.1855640
  51.3910961  34.0722919  47.5041056  51.1521387  35.5941391  45.0422668
  50.3582096  35.8249974  45.5245686  51.5540600  34.8978782  45.5618000
  57.2852707  39.8940253  48.9791489  57.8432274  39.1164041  48.9642763
  57.1715784  40.1249075  48.0571938  52.3817682  33.5929537  50.9460354
  53.0535841  34.2727017  50.9992695  51.6169071  33.9781260  51.3736582
  61.5151978  46.5216494  59.7069407  62.0452356  47.2958946  59.8962402
  61.2023640  46.2303066  60.5633783  80.8661652  69.3584061   3.9583310
  81.1148357  70.2825499   3.9773223  81.1195469  69.0244675   4.8188612
  63.1738567  23.4145927  39.5378399  63.2305813  23.4832549  38.5847926
  62.4444056  22.8142166  39.6917248  55.6365728  27.2614098  62.4750137
  55.6252718  28.0766797  62.9764462  55.5699968  26.5725589  63.1362867
  72.4249458  48.0870247  40.1333952  72.0697689  48.7388229  39.5290422
  72.1945620  47.2452402  39.7402668  64.3039989  41.0721540  38.1064844
  64.8694229  41.1931610  37.3436689  64.7961473  41.4552736  38.8326001
  69.4173050  33.0944610  36.5388894  70.0023222  33.4930754  37.1831679
  69.1094589  32.2915411  36.9593453  57.0604229  36.9309831  34.6709418
  56.7943096  37.7458692  35.0968266  57.8759766  36.6871715  35.1087308
  64.6275091  52.1496677  55.1759672  63.7335634  51.8152380  55.1035023
  64.9604797  52.1395826  54.2786074  81.2898350  46.5051079  62.9422617
  81.1900616  45.5633926  62.8027916  82.1710014  46.6017103  63.3034420
  63.7095213  32.2319865  48.5922861  63.6947966  32.0277119  49.5273161
  63.2079935  33.0437517  48.5165405  53.6279392  40.8815050  38.0358839
  52.9263306  40.6644297  38.6497712  53.4912729  41.8070316  37.8335071
  54.3385315  37.5952959  53.8337469  55.1752234  37.8519201  53.4460306
  53.9277935  37.0399404  53.1710958  62.6566601  44.8958302  58.1050587
  62.3469305  45.4881716  58.7902069  61.8602943  44.4940042  57.7578306
  53.4529829  37.1642447  44.5072985  53.4618425  37.6721430  45.3185892
  52.5476313  36.8655419  44.4215965  72.6752090  29.4494176  53.6045980
  72.9906511  28.8025117  54.2356634  71.7370653  29.2743158  53.5307503
  66.0000992  32.9863977  38.4043717  66.3234091  32.3070741  38.9961696
  66.0426712  33.7924051  38.9189339  67.3479557  52.8268099  65.4578257
  68.1818438  52.8747749  64.9903154  67.5387669  52.3010683  66.2346268
  64.7177649  35.3641987  50.7934189  64.0293598  34.7902989  50.4573011
  64.2475462  36.0501504  51.2673330  71.2516451  18.8409758  28.1006885
  70.4495239  18.8167918  28.6224604  71.8044186  18.1574142  28.4793973
  60.9591532  43.5368347  44.3661737  61.2325191  44.3155766  43.8813353
  60.6701612  43.8722515  45.2148294   3.5146567  32.3620486  37.7759886
   3.5563096  31.7951488  37.0058465   4.1937953  32.0236492  38.3595014
  47.3599195  34.9279523  50.6685781  46.9586277  35.1648927  49.8324776
  46.8659735  35.4249406  51.3206911  63.3549929  27.5905108  39.6853137
  62.9363871  28.4230137  39.4663620  63.0387974  26.9807863  39.0186143
  85.1259613  26.9203877  30.2573586  84.6145248  26.2102413  30.6451106
  85.2726078  27.5317264  30.9791565  60.1936483  34.9438238  50.3056574
  60.1144123  34.5586514  49.4329643  60.4520273  35.8512735  50.1443911
  42.7333260   8.5332716  31.4921904  43.5304070   8.7842566  31.9589877
  42.1281815   8.2596338  32.1815014  58.9979792  47.9647541  58.8223314
  59.1654873  47.4954653  59.6396065  58.0505037  48.1005812  58.8139963
  83.4669209  46.9334936  45.0122023  82.8192806  46.3359594  45.3860378
  83.6174393  47.5834560  45.6985855  31.8047500   2.3081905  46.9336510
  31.0237503   1.7809138  46.7655659  32.0116353   2.1433033  47.8535652
  63.6550331  68.9233828  61.0955667  64.4410849  68.4677696  61.3968611
  63.2780075  69.3014622  61.8900108  79.3575239  71.0935545  46.5715313
  79.2563438  70.3400469  47.1531010  80.2966499  71.1319399  46.3904428
  70.6626081  37.0401716  44.2951393  70.6584120  36.7350292  45.2023888
  70.0190735  36.4863062  43.8531780  11.8794358  70.6613207  12.2611022
  11.5083027  71.4613533  12.6331723  11.3254309  69.9591637  12.6021099
  65.6246710  50.9595060  42.9358864  65.2145290  50.9831572  43.8004446
  65.0035286  50.4783058  42.3892069  85.8465481  34.3792200  52.5961304
  85.6163692  34.1437435  53.4949064  85.5112743  33.6563301  52.0657921
  62.3276758  62.1098089  60.2747440  63.0515671  62.6986742  60.0615549
  61.6708374  62.6750946  60.6812382  50.8501196  46.6219425  54.4791985
  49.9537563  46.4522409  54.1894245  51.0202551  47.5259829  54.2146444
  64.3952465  51.4607668  45.4704380  64.0214348  52.3190403  45.6700706
  63.9024544  50.8512259  46.0198450  20.0203753  12.3576427  41.1314726
  20.7302427  12.1780479  41.7479658  20.4574513  12.4595249  40.2860022
  81.0196781  79.1918993  43.5929823  81.7948151  79.0371227  44.1328287
  81.1454296  78.6316442  42.8271294  16.3005018  47.2265339  45.7456160
  16.2674642  47.1338987  46.6977501  15.3905892  47.1316767  45.4640293
  66.4231157  42.9883909  28.3780479  66.1742306  42.1533203  28.7742019
  67.3590946  42.8988981  28.1987095  67.9960155  66.0920715  49.8190022
  67.2433853  66.6797733  49.8852301  68.6310863  66.4450455  50.4421616
  64.7001648  49.0773296  58.1777334  65.2425480  49.4744921  57.4963284
  65.2939367  48.4886360  58.6436892  77.1254873  53.4063816  31.7137337
  76.1722565  53.4131336  31.8005705  77.4174404  52.7352524  32.3306417
  16.8995929  17.5796962  68.1129074  16.9493115  18.4547317  67.7281046
  16.1190701  17.1891820  67.7198219  50.5296469  80.3304100  27.1164775
  49.8772955  81.0069561  26.9349241  51.1893940  80.7713413  27.6517701
  82.3525906  53.2430840  42.6942253  83.1235218  53.8091993  42.6567173
  82.6680183  52.4354267  43.0997181  76.6688919  75.6762600  32.6691008
  75.9396744  75.3611708  33.2031369  76.4966393  75.3231430  31.7962503
  44.3216419  17.6734757  67.9533386  44.9233913  16.9419193  68.0910301
  44.8811817  18.4499550  67.9684258  69.5781755  57.6263857  58.3483076
  69.0055656  57.8403234  57.6117086  69.1153812  57.9609680  59.1164923
  67.8328705  61.2569189  54.6685457  67.9014826  61.8879700  55.3849936
  68.6759520  61.3126421  54.2187262  67.0808744  75.1511717  54.5683050
  67.2509289  75.4559565  53.6770010  67.4058151  75.8559990  55.1285410
  83.6990261  76.2584257  54.4524765  83.7007427  77.0550776  54.9831152
  83.2921219  75.5979919  55.0132608  72.8665495  58.2685471  31.6069245
  72.9375696  57.6251650  30.9017706  71.9768620  58.6128139  31.5283322
   6.9546866   6.5751141  51.8410397   7.2695470   5.7689673  51.4321136
   7.5687933   6.7359537  52.5574446  58.9618540  72.0995092  53.2587290
  59.8669291  72.2665834  52.9957485  58.4508848  72.2408819  52.4617624
  56.7737007  57.1666908  58.6281061  57.1629763  57.5093365  59.4326496
  57.3280239  56.4230108  58.3916712  45.9535837  35.7707000  48.3223343
  45.1194954  36.1350322  48.6186314  46.3764429  36.4904380  47.8539324
  23.6053300  22.1635079  15.4108751  23.6395264  21.2250113  15.5960333
  23.9714622  22.2474337  14.5304561  71.2099791  52.8708935  54.7816658
  71.8208027  53.0738974  55.4901266  70.6205225  52.2151423  55.1541758
  76.4689159  73.4580421  30.8350587  77.3639679  73.5275841  31.1671352
  76.0058117  72.9480982  31.4996815  51.5794802  31.0272932  50.4540348
  51.3973379  30.9894133  51.3929796  51.8079710  31.9424319  50.2911091
  78.2630682  50.3864336  46.1798716  77.4234772  50.1133871  45.8100653
  78.0420065  51.1074829  46.7693233  80.0576019  60.4590464  21.9297409
  80.5414391  59.8469162  21.3752866  79.7535706  59.9271297  22.6651764
  66.0104179  52.7876949  52.8948450  65.2731466  53.2511520  52.4975204
  66.4783812  52.4023724  52.1540546  76.8082857  70.1991701  41.7259550
  76.5879822  70.9171534  41.1324930  76.3278627  70.3969526  42.5298882
   3.0833539  64.2388201  49.3872213   3.1310752  63.8280630  50.2504921
   3.9687663  64.5659971  49.2283821   3.0174720  65.8074713  30.1162934
   2.7702495  64.9975729  30.5625868   2.9610315  66.4811754  30.7939148
  69.1416264  56.4090586  26.0042453  68.9291859  56.0486984  25.1432920
  68.4180212  56.1306620  26.5656042  84.4126511  33.7889338  66.1795330
  84.7974586  32.9178095  66.0830975  85.0582504  34.2811537  66.6866398
  68.1146240  63.4074163  57.1487427  67.7547359  63.8405275  57.9227734
  68.1630087  62.4829912  57.3923159  74.9338579  70.7873821  50.7396317
  74.9442053  71.0736275  51.6529703  75.7039690  71.2014389  50.3501225
  61.2405825  57.4679518  20.6954980  60.3491735  57.6860905  20.9676075
  61.1272287  56.9378138  19.9066174  78.6550283  47.3488474  29.2936659
  78.5096788  48.1236315  28.7506986  77.9404116  46.7559624  29.0611911
  74.7558260  79.6067715  26.9083905  75.1891088  78.8012028  26.6263342
  74.8465157  79.6065044  27.8612852   6.3525218  31.2128973  70.0570726
   5.5167502  31.6550040  69.9078751   6.8922615  31.4614296  69.3066406
  57.4552774  39.8319101  54.3028784  57.2955942  40.0465775  53.3838272
  58.3130312  40.2122641  54.4921398  73.2751846  49.8353338  30.3635406
  74.0135241  49.2445755  30.5121803  73.2757187  49.9862528  29.4183135
  74.9907637  69.0543652  36.8868089  74.4944906  68.3258533  37.2599339
  75.8227348  69.0446949  37.3600507  33.7378263   2.7883574  35.4257345
  33.2929635   3.4337103  35.9751415  33.6664677   3.1395453  34.5381474
  68.3077669  57.6284027  50.6257534  68.6942053  58.3694887  50.1591825
  67.9384518  57.0772362  49.9357891  68.0042362  47.3072481  43.9284849
  68.4966135  47.9586220  44.4279909  68.6285543  46.9799328  43.2809353
  65.7737732  64.6195936  16.7270780  65.5186272  64.7291708  17.6431155
  66.7077875  64.4130659  16.7616606   5.4337645  15.9151161   4.6525219
   5.7813293  16.7490971   4.3364432   4.9977496  16.1340427   5.4760474
  70.1605511  31.4740109  55.1118565  69.3970919  31.6264224  55.6687546
  70.1734495  32.2209811  54.5134401  83.3454132  78.9064264  66.6640472
  82.9494953  79.5478916  66.0741282  84.0870571  79.3673611  67.0561409
  58.5515356  60.0160885  64.3896198  58.6344051  60.9067678  64.7302961
  57.9783106  59.5728064  65.0150394  74.6754789  64.0024757  26.5845895
  74.0977907  63.9254999  25.8252597  74.1502571  64.4623566  27.2394800
  64.4805717  33.5309410  33.9955306  65.3246832  33.4468317  34.4389606
  64.3634415  34.4739389  33.8803506  74.1885376  49.7097063  52.3900175
  74.6524048  50.5446291  52.3270464  74.3023491  49.4406319  53.3015394
   9.5539862   2.0639350  35.0394607   9.0982014   2.8272706  35.3941584
   9.9784857   2.3864675  34.2444730  65.7375145  75.3491211  19.6283853
  65.3477001  75.8899069  20.3152776  66.2224054  74.6732044  20.1019430
  77.0060873  58.5176373  53.4590578  76.4940310  57.9012823  52.9354763
  76.8735743  59.3634129  53.0308819   2.2476667  43.4549999  20.3371644
   2.7708524  44.0895367  20.8269310   1.8251887  43.9716434  19.6510017
  74.0262175  38.5548139  38.0048966  73.7095642  37.6730299  37.8088903
  74.0789652  38.5835147  38.9602113  60.3719234  69.3613338  55.4626322
  61.0096025  69.5584393  56.1487436  60.2384710  70.1956606  55.0128317
  66.7325354  60.0665617  40.0908518  66.2787914  59.5741606  39.4068265
  66.0314941  60.4905033  40.5858707  77.1406269  54.3663406  26.8148613
  77.3193026  54.7154093  27.6880503  78.0044460  54.2709875  26.4136672
  35.2906251  50.1004219  67.9581070  34.9243975  49.2366505  67.7683640
  34.5560527  50.5985403  68.3165932  84.9197865  52.8418732  48.5863066
  85.3110123  53.7096834  48.6866617  84.3876266  52.9092789  47.7935266
  46.7696381  47.1241570  61.4264202  46.2926531  47.9523087  61.3727283
  47.2776461  47.0873737  60.6159830  75.9461021  71.2966633  38.6136103
  75.5190039  70.4525232  38.7593579  75.7307148  71.8115044  39.3912840
  69.7163486  60.3655958  37.1640229  70.2556467  61.1229229  36.9363260
  68.8174200  60.6573915  37.0123196  77.7821255  45.6493664  34.9150467
  76.9978809  46.1713505  34.7455692  78.0925751  45.9534931  35.7679009
  72.0190573  65.5050802  41.5591145  71.2018204  65.2063370  41.9579983
  71.7411518  66.0694027  40.8376312  14.0238547   5.8264542  37.3961139
  14.7660935   5.2508950  37.5806236  14.4233096   6.6559637  37.1342325
  71.9686651  49.5841217  43.0217218  72.2143841  48.9711189  43.7145996
  72.3556852  49.2156267  42.2275782  67.8930855  74.6534634  47.7929783
  68.1069422  74.0782404  48.5275650  68.3451080  74.2641401  47.0444250
  70.2601004  56.6621447  42.4075508  69.8115444  55.9332371  42.8361797
  70.6883574  56.2666655  41.6483212  78.5682154  35.3010893  18.0077064
  78.9505959  35.6118822  18.8283312  78.9395571  34.4272566  17.8862464
  67.5446558  49.5337629  62.7758694  67.2884846  49.6522045  61.8612194
  67.5766087  48.5844994  62.8946495  60.3285980  74.3056726  43.0726957
  60.9801865  73.7921572  43.5501575  59.6538401  74.5006180  43.7230301
  71.6636086  55.9628010  29.9159288  71.3360262  55.0765944  29.7624135
  71.9933605  56.2472677  29.0635347  85.9606552  73.9675474  50.1970768
  85.0402451  74.0111256  49.9378872  85.9416294  73.6291361  51.0922575
  75.4463816  70.8483553  20.8954167  76.2241554  70.3233433  20.7065701
  75.7063150  71.4064837  21.6283274  70.0687647  74.7461033  45.1685619
  70.2751875  75.1577091  46.0077286  70.9219313  74.5412016  44.7859955
  73.2483673  62.7858686  62.0381117  73.3421421  62.4281502  61.1552334
  73.1379747  62.0170593  62.5975609  51.0550785  56.6964245  59.2783022
  51.0933208  56.2669134  60.1328754  51.6954756  57.4053669  59.3376875
  61.7698717  68.5788918  41.7097139  61.0697269  67.9376984  41.8317652
  61.4947414  69.0922785  40.9501266  12.1515274   6.3071626  29.6151853
  11.2832892   6.0084081  29.8856306  12.5018501   6.7540210  30.3857851
  57.4554348  58.5934782  26.9804478  57.7748108  59.4089890  26.5942192
  56.7112923  58.3442211  26.4323997  61.0675573  60.0080204  50.1679611
  60.4238892  60.0353432  50.8758974  61.7545748  60.6140566  50.4453754
  61.2429619  40.3825378  41.3438606  60.4355812  40.5806398  41.8183279
  61.9255304  40.8469677  41.8282509  61.3740683  57.6558352  52.6946068
  62.0971298  58.1919193  53.0202198  60.6801939  57.7695656  53.3440971
  12.6222265   9.9295932  29.9345112  12.2860682   9.6357608  29.0878153
  12.1164298  10.7177365  30.1325822  54.0255451  29.1090775  57.8629589
  54.9718904  29.2525697  57.8716469  53.6514330  29.9846196  57.7644682
  67.5993776  72.5848532   1.1831650  66.7921782  72.4918079   1.6891326
  67.8759003  73.4881783   1.3373260  69.2656517  53.0745363  40.4970503
  69.7833157  53.0876064  39.6920109  69.7944546  52.5681782  41.1136484
  67.3159122  21.4585495  43.2920265  67.6921129  21.7581964  42.4644279
  67.1800947  20.5192900  43.1672287  65.7910728  67.1601391  29.2072272
  66.4381361  67.8050041  29.4930506  66.2629509  66.3273764  29.2157173
  28.6922169   4.8417881  38.0384254  29.4641948   4.3211398  38.2602549
  28.7490869   4.9626115  37.0905876  74.8284817  74.0115690  23.6699224
  74.3202400  74.1153002  24.4743872  74.6068001  74.7811365  23.1456542
  55.5873966  46.5194321  13.0713260  55.8504772  47.4327612  13.1846714
  56.3737679  46.0158062  13.2815933  64.2496252  72.0662403  36.8032169
  63.9165688  71.3382006  37.3278689  63.4645748  72.5273705  36.5077710
  71.7831087  80.7126617  60.3448772  71.5309668  79.8319387  60.6223249
  72.7300072  80.6608772  60.2147198  56.1818695  54.2043447  61.0418367
  56.9949722  53.6998844  61.0171032  56.2986565  54.8112154  61.7727947
  65.4369020  78.1745529  16.9247949  66.2559462  78.2434940  16.4342344
  64.9348927  78.9461613  16.6624188   7.7646738  61.0144329  55.1901531
   6.9652683  61.3967800  54.8282242   7.6809579  61.1351442  56.1360121
  81.2781048  68.0365181  49.1576815  80.9044743  67.2024822  48.8730621
  81.1026955  68.0690479  50.0981140  62.8095198  58.9108276  39.3590474
  62.5870609  59.3712425  38.5498738  63.7157726  58.6295891  39.2332006
  66.6349411  53.6816359  43.6246777  66.7928219  54.2201376  42.8492260
  66.2670135  52.8678465  43.2802916  84.2251778  50.8814716  45.6741858
  84.1580963  50.7518053  44.7281837  84.8439598  51.6049957  45.7734823
  68.4153318  63.9412165  34.5787001  67.5353527  64.2800426  34.7432160
  68.7518692  64.4845867  33.8661528  80.2513218  77.5241423  50.3278780
  80.8726311  77.7847290  51.0078049  80.3912640  76.5829945  50.2235079
  83.8984776  67.5291348  43.1857920  84.7916222  67.6662445  42.8699970
  83.9801979  66.8377399  43.8427019  63.9642763  51.4185476  69.6113253
  63.0209541  51.4663792  69.4561195  64.3380308  51.2147093  68.7540102
  11.4256442  75.5273342   1.3023819  11.7834210  75.2320671   0.4650982
  11.0387337  76.3813829   1.1096863  78.5030890  61.1351395  32.5842237
  78.7627172  60.2147102  32.6246548  78.9635658  61.4805126  31.8194318
  75.0038385  57.1876526  23.5915518  74.5661211  56.6617203  22.9222012
  75.6421995  57.7101660  23.1060529   2.8650460  36.8713379  51.0843134
   3.4643456  36.6134834  51.7847300   3.2867500  37.6264310  50.6741524
  69.8410273  41.0376453  22.8996682  70.2061987  40.1568699  22.8153133
  68.9010525  40.9214878  22.7611518  57.6612186  70.4485464  19.7195327
  58.3823156  70.9527636  19.3426847  57.5059748  69.7449255  19.0894127
  51.2767553   5.5460566  34.2116094  51.4915514   4.7266001  33.7659788
  50.8258867   5.2731222  35.0106430  82.5616360  25.6192303  26.0324121
  83.2442474  25.2909064  26.6176224  81.7417622  25.4132986  26.4814520
  10.9568393  53.2967806  30.2317977  11.6232455  53.1131697  30.8939314
  11.4532912  53.4443712  29.4268227  20.1834178  75.6603432  47.3817396
  20.5353904  76.5387964  47.2379780  20.0235343  75.6177092  48.3245277
   7.3591018  61.9042206  28.5604429   8.1311285  61.6063786  28.0793023
   7.6262933  61.8821478  29.4793296  63.3152485  48.4461403  60.8535862
  63.1592512  48.1260395  61.7420864  64.2658281  48.5435581  60.7975531
  59.6261120  55.1036930  65.4500818  58.9471674  55.4341555  66.0383558
  60.1444197  54.5092392  65.9924984  83.1823158  48.9131212  30.6768179
  83.1835365  48.3941031  29.8725510  82.2854996  48.8450909  31.0044122
  73.0421495  33.9142656  43.5746479  72.8079700  33.7891459  42.6550102
  73.9723015  34.1394830  43.5564470  11.0686004  73.2861757  20.3369308
  11.1519420  73.4425545  21.2775850  11.4972770  72.4420929  20.1955485
  58.6552906  58.0948973  54.6316767  58.8769150  57.2862482  55.0934172
  58.9598942  58.7929535  55.2114725  61.9393730  61.3194942  32.7998471
  61.2412310  61.4976692  32.1696997  62.6823092  61.8352842  32.4864125
  81.0436058  78.4438372  39.1285515  80.2302361  78.0103397  38.8702011
  81.3920784  77.8985262  39.8338461  80.0722790  54.5044136  42.3930645
  80.8951187  54.0703297  42.6183081  80.1492310  54.6931362  41.4578104
   7.8277373  74.3527555  35.6652117   8.4711814  73.8475990  36.1622286
   7.1855378  74.6310425  36.3181806  68.0990791  79.8711348  41.6433287
  67.7106524  79.5624542  40.8247519  68.6451960  79.1427088  41.9389439
  79.3399668  50.6356764  36.1404419  78.8355112  49.8516273  36.3573003
  80.2513599  50.3820276  36.2862563  75.4215527  51.5709734  37.8239274
  75.1645851  52.0952749  37.0654368  74.6726656  51.6254902  38.4175849
  67.4962902  73.7979317  44.3042946  68.0583954  73.2125092  43.7967920
  68.1020069  74.4142723  44.7159529   7.2262144  43.6917210  46.7860794
   7.6386482  43.1565809  46.1080265   6.4293402  43.2140732  47.0164633
  78.5803986  55.0604630  33.3296728  78.3370113  54.4404936  32.6421857
  78.7715626  54.5117235  34.0903139  70.7051992  43.0276203  48.1675100
  69.8763323  43.4808588  48.3217144  70.9871531  43.3310175  47.3045588
  27.5698590  74.2494249  54.4533873  27.2970819  73.4407091  54.8867464
  28.1807828  74.6561289  55.0678778  68.7035561  60.5756092  57.8807926
  68.4940147  60.2793074  58.7665319  69.6503687  60.4564762  57.8060961
  83.8819027  45.6121588  60.3025484  84.0179825  46.5496349  60.1652193
  84.5786285  45.3549290  60.9063959  77.5010777  38.7555838  40.4569435
  77.5720119  38.0795550  41.1308765  78.2242823  38.5726595  39.8571491
  61.7699575  69.3793154  50.9467220  62.1044159  70.2369118  50.6842327
  62.2064209  68.7620592  50.3595877  36.6460443   6.0590756  68.7923908
  37.1827793   5.8144593  68.0385256  35.9474611   5.4049724  68.8113737
  67.2754002  63.9769030  52.3268890  67.0795012  64.5897579  53.0355930
  66.6531324  64.2032290  51.6356707  16.1083388   2.9151854  54.0435076
  16.9529176   3.2183096  54.3767262  16.2940836   2.0548013  53.6673832
  83.9775944   2.6188755  66.4400482  83.8003731   2.3923455  65.5270815
  84.0890121   3.5695475  66.4336538   2.7168572   4.4130796  23.5115504
   2.9852343   4.7822145  22.6701546   2.6267725   5.1717925  24.0881538
  66.9841814  70.2422333  53.9417124  67.4165297  69.7705412  54.6536160
  67.6738548  70.7860947  53.5611773  21.9609118  53.0497360   6.1874539
  21.3435721  53.7715816   6.3060468  21.4529014  52.2642994   6.3905507
   3.3381727  15.8049715  34.4336629   2.8489178  15.2380574  35.0298738
   4.0876490  16.1040318  34.9485230  84.1804123  74.2738914  21.2138391
  84.5837784  74.0412474  20.3775334  83.7598419  75.1180506  21.0503006
  81.7031288  53.3653975  30.4156280  82.0970440  52.8018570  29.7496772
  81.1727428  52.7724504  30.9479237  17.2323048  20.1116443  49.4776726
  17.1978629  19.3557262  50.0638723  18.1556094  20.1856899  49.2363071
  13.9082682   0.1918365  32.4658704  13.8489461   0.7057737  31.6605258
  13.4615123   0.7248130  33.1235766   8.8338476  77.6719236  41.5141726
   9.1817427  78.1814003  42.2460413   8.8213396  76.7700624  41.8346786
  11.5238726  57.7074814  23.8086224  11.9456923  58.3066750  24.4244671
  12.0560670  56.9127035  23.8451147  69.3279934  40.3546953  29.3844676
  69.9327803  40.5209875  28.6614108  68.6238480  39.8373699  28.9935923
  35.8435774   0.5539894  30.5514288  35.4570270  -0.0860761  29.9538255
  35.4547453   0.3523520  31.4025354  62.9796839  73.6382103  41.3032293
  63.6356163  73.2186556  40.7464886  63.4810543  73.9966297  42.0356178
  56.1477566  77.7644062  64.8190975  55.8277464  77.8653955  65.7155514
  55.7501459  76.9491816  64.5132542  37.0152736   1.8238971  53.2166147
  36.2042570   2.1967395  52.8709698  37.5117302   1.5681913  52.4392033
   8.5773426  24.3141341  50.2882099   7.9611152  25.0178719  50.0851154
   9.3111730  24.7546244  50.7168007  16.2773204  22.9382038  43.3222008
  16.1125183  22.0425224  43.6168671  16.7297578  22.8354788  42.4849558
  67.7248955  70.6772614  34.4302845  68.0816984  71.2467527  35.1119018
  68.1182003  69.8218155  34.6027803  74.9492741  67.9508924  50.3767538
  75.1128244  68.8905668  50.4573536  74.7545958  67.8204012  49.4486856
  38.8990116  12.8717136  32.3245502  38.6479068  11.9570720  32.1956754
  38.0882883  13.3080494  32.5864100  30.4294133   3.0965254  54.8162317
  31.0195303   3.7833944  54.5060587  29.8018169   3.5544443  55.3753948
  83.5502243   6.4039457  41.5404510  82.6078510   6.2367350  41.5264416
  83.9484882   5.5369765  41.4630890  54.1519737   5.0766540  39.7199798
  55.0522614   4.8562089  39.4809890  54.0933323   6.0225910  39.5858288
  74.7449255  48.0280447  54.5659924  74.6567965  48.3731651  55.4544544
  75.6651306  47.7733898  54.4981480  60.7478666  69.9210835  45.9789181
  60.2168274  70.5676508  45.5139637  61.4201212  69.6646547  45.3476048
   0.5753795  64.9475956  12.0815468   0.8963342  65.0686216  12.9751754
  -0.3551643  64.7491217  12.1860886  10.2956128  66.5426636  64.4965744
  10.4103601  65.9222746  65.2164221   9.9807256  66.0081482  63.7676191
  48.8741732  70.6750345  69.7736216  49.4052839  70.4465437  70.5364752
  49.3309641  70.2731133  69.0346813  73.9770985  64.2986774  38.1698537
  73.8270903  63.8255692  37.3513794  73.9193344  63.6266327  38.8490129
  79.0223312  64.9265194  24.8326206  79.1653204  65.5899763  24.1576314
  78.6631060  65.4131556  25.5744934  64.1199207  69.9482441  42.3661757
  63.3106422  69.5386648  42.0603228  64.7635794  69.7424507  41.6882467
  20.9609199  23.6740732  68.0254364  21.3974047  24.0954471  67.2850561
  20.0762486  24.0395522  68.0215406  57.5236559  80.4646778  56.4953709
  56.9988871  81.2221050  56.2362146  56.9390345  79.9460554  57.0480728
  82.8806782  23.3432889  46.8571138  82.5608158  23.3177948  45.9553003
  83.8095570  23.5596037  46.7757559  30.4015493  10.5241454  43.8033628
  29.8434496  10.1761019  44.4987917  29.8553658  11.1734915  43.3603477
  79.2664862  56.6418648  35.7574034  78.8175964  57.1915436  36.3997293
  78.6464930  56.5660572  35.0320792  71.9978571  68.9227533  33.2927418
  72.1897459  68.1596661  32.7476597  72.7981710  69.0629816  33.7987685
  22.8348613  44.1592407   5.8575124  22.7937889  43.2448483   5.5774546
  23.2927012  44.6072483   5.1462412  10.3647089  72.6091909  47.6201439
  10.8783364  71.9257784  47.1896029   9.6376354  72.1402454  48.0296326
  61.9798374  22.6940489   9.6557224  61.7106628  22.1155334   8.9422137
  61.1603165  23.0561733   9.9925959  80.5318356  64.7332048  38.7588167
  80.1591110  65.5408907  38.4053349  80.1567173  64.0390730  38.2168770
  75.2803802  72.5931311  41.1762524  75.7427311  72.8264093  41.9812679
  75.0709772  73.4333277  40.7682562  17.5660443   4.1514429  47.5352764
  18.4651434   3.8768953  47.3550653  17.4478126   4.9434787  47.0109367
  43.6444044  75.5269432  37.9772592  43.2644939  75.9091997  37.1861935
  43.9006805  74.6423101  37.7165246   8.6391282  66.9157124  36.1187005
   8.5346210  66.9530201  37.0694447   7.8559649  66.4605427  35.8093357
  64.4838095  71.3995934  33.7911510  64.4260406  70.5062437  34.1299963
  64.9449873  71.8856812  34.4747210  82.7417755  65.7261753  24.4216061
  83.2394791  65.4525471  23.6511183  82.3695564  64.9147224  24.7668982
  21.1416936  62.0208454  24.6129727  20.8546329  62.9277515  24.7195029
  20.3324199  61.5099335  24.6296167   2.3617812  54.4470024  48.7501764
   2.8652462  55.1602221  49.1426992   1.5419838  54.8564768  48.4735966
  72.1447134  70.7927561  44.6022797  71.2765932  71.1942959  44.6392918
  72.4437475  70.9508467  43.7068367  83.1231308  68.7189245  45.6968117
  83.4267712  68.4545851  44.8283863  82.8245354  67.9057074  46.1039400
  41.7913628   9.8813438  27.7879524  41.3658142  10.5803311  27.2914100
  42.2155952  10.3308415  28.5188508  16.8358719   3.6601785  31.2868953
  16.6606951   3.8026449  30.3567076  16.7801368   2.7111429  31.3985062
  32.7116823   3.6459237  32.8156662  32.0180917   2.9868752  32.8442335
  32.6094413   4.0643397  31.9608545  36.4215755   2.9822600  68.9654970
  36.2524986   2.9457536  68.0240536  35.6264257   2.6301482  69.3654728
  81.8433857  60.1289177  24.4177699  81.0931873  59.5667887  24.2242813
  82.2065449  59.7729635  25.2287221   1.3709739  45.9620380  30.1595712
   0.9746312  46.6769028  29.6614671   1.3309835  46.2537766  31.0703540
  22.7626157   0.4801093  44.7087812  22.6851511  -0.3431120  44.2265606
  23.6942339   0.6957939  44.6663475  49.8748159  73.1714630  63.8119364
  49.9304914  74.1244650  63.8820410  49.8256874  72.8671074  64.7181320
   3.8559920   4.3330204  29.2802048   4.4308779   4.4948143  28.5321665
   4.3641031   4.6194902  30.0391436  72.3232079  72.7902126  38.0667925
  72.3565674  72.3966789  38.9387155  72.1975517  73.7248945  38.2305241
  73.9302492  67.3694038  26.8986511  73.2544184  66.6975260  26.8088484
  74.3643427  67.1633291  27.7264953  79.3813038   8.6014658   3.7850124
  80.3170681   8.7887424   3.7108487  79.2779493   7.7365512   3.3881840
  54.6472645  68.6405659  37.2439861  55.1577759  68.8542652  36.4629960
  54.2472267  67.7941704  37.0444489  11.1852789  77.2213984  64.6953201
  11.2564445  76.3284016  64.3580914  11.9510448  77.6731014  64.3406391
   8.2472980  80.7054043  25.6450510   8.3132619  79.8725224  26.1121583
   7.8306383  81.2983608  26.2703681  79.6337986  57.9818916  54.0792322
  78.7867832  58.4226894  54.0122557  79.5646381  57.2379827  53.4808636
  76.3318634  77.8913593  65.4949617  75.8891582  78.7056923  65.2559996
  76.6092825  77.5154781  64.6595097  74.2845631  63.9208221  45.5698681
  73.5053444  63.3670330  45.5211687  74.2607546  64.4390440  44.7654343
  80.3695774  18.2899332  47.0102596  80.2479458  18.4965611  47.9369450
  79.5306826  18.5079932  46.6041327  58.0806541  68.3959293  38.1867504
  58.6372089  69.0508938  37.7654433  58.6933613  67.7433395  38.5257888
  20.4821062  68.6590433  30.6353307  21.3932824  68.9460754  30.6953478
  20.2982831  68.6402416  29.6961355  76.8657780  62.6117611  26.7920280
  75.9713268  62.9485226  26.8447614  77.3466110  63.1038904  27.4574900
  51.0085344  79.0537596  53.5422754  51.7739964  78.4812546  53.4919310
  51.3732290  79.9371910  53.5949802  22.6392984   7.8342867  33.5733151
  22.0586562   7.0759416  33.5100651  22.0650983   8.5545397  33.8336253
  36.2568879   2.7002904  66.3950109  35.4067516   2.6374671  65.9596348
  36.7967677   3.2129794  65.7934189  81.4565849  78.7684727  33.4726906
  81.5574646  79.5568466  32.9392838  80.5445385  78.7903929  33.7624073
  69.3865585  29.2992377  61.0829973  69.8345089  29.9179459  60.5061293
  68.6522484  28.9744759  60.5618906  50.6669855  77.1602297  29.8395801
  51.2857771  76.4599514  30.0467896  50.5439472  77.0986032  28.8923216
   4.2379519  41.7221069  27.7584934   3.3927903  41.3534832  28.0154943
   4.6530953  41.0317612  27.2414708  32.4149084  62.5925875  10.7296979
  32.7032018  62.0385361  11.4550567  33.0814457  62.4685764  10.0539911
  78.1681633  51.2638760  33.2404542  77.3795223  50.7308865  33.1394625
  78.3895445  51.1905432  34.1688108   2.6593104  70.4702759  53.7516880
   3.0773687  69.6283388  53.5711193   1.8505122  70.4506874  53.2401276
  80.6379128  73.4660864  54.0852451  80.8320236  72.5289392  54.1027260
  81.0181141  73.8045979  54.8958540  68.0870581  64.4208384  44.4720554
  68.0188704  63.7883234  43.7568617  68.1231976  65.2722645  44.0361691
  82.2732067  73.3619547  36.8605018  82.4710274  73.6578465  37.7490664
  81.3175869  73.3159256  36.8305635  84.2487240  76.4299011  42.7420330
  84.5028305  75.7207727  43.3326197  84.9678326  76.4868784  42.1128511
  14.1735184   9.2111725  33.8332081  14.9628913   8.7066042  33.6369085
  14.3130004  10.0527084  33.3989358  73.1968880  53.0908585  29.3245697
  72.7562237  53.5768843  28.6275554  72.5955439  52.3766804  29.5356703
  62.4597454  69.4656277  37.9111099  62.0921421  69.4113588  37.0289826
  61.7062330  69.6431065  38.4740949  69.7335148  71.5196609  48.0343723
  69.9112558  71.6236115  47.0995808  69.4976044  70.5971622  48.1321859
  79.9595022  79.8921394  21.8954992  80.4150677  80.6850243  22.1784019
  79.0659380  80.1819706  21.7117357  77.3870325  59.6949530  16.5911436
  77.7470636  60.4781914  17.0072556  78.1483746  59.2501736  16.2186420
  12.8454649   8.6692506  39.0398359  13.2300055   8.4461415  38.1921434
  13.5869586   8.9622045  39.5695496  82.5960541  67.1016598  30.5768633
  82.9857731  66.2293720  30.6357503  83.2858658  67.6471710  30.1989579
  24.1567779   0.6686240  47.5349140  25.0573087   0.5615922  47.2286177
  23.6397433   0.7530215  46.7337990  61.2636900  62.1469879  35.5138111
  61.6437864  61.7517805  34.7292280  60.3503275  62.3125172  35.2801538
   1.0702533  78.0226564  26.6527581   1.7962778  77.4158144  26.5083265
   0.7721961  78.2532740  25.7728672  69.7389412  63.3658218  41.3672256
  69.8181105  63.4833670  40.4205751  70.0669765  62.4808836  41.5269566
  80.9740353  70.6878185  54.8266888  80.0634289  70.3929520  54.8174429
  81.3930225  70.1503277  55.4988337  82.4058056  57.8250074  30.9539413
  83.2797241  58.0733728  30.6526065  82.5146198  56.9393539  31.3003612
  14.9287975  25.0682521  52.1069622  15.4144955  25.8624697  51.8843746
  15.4459667  24.3572474  51.7284870   2.5276154   1.8086381  54.0193510
   2.0810497   2.5745851  54.3800974   1.8798275   1.4030668  53.4430599
  79.0109587  63.3668089  48.4326649  78.1039524  63.4600496  48.7239981
  79.2978144  62.5332165  48.8055801  47.0842028  76.6244888  11.8244910
  46.5264988  77.3964500  11.7281950  47.5674343  76.5737391  10.9997845
  74.0235567  53.4699202  50.7900763  73.6910677  54.2032290  51.3077068
  73.5335112  52.7112722  51.1071539  76.9958210  58.1979036  33.3406568
  77.3252106  58.1315470  32.4443698  76.8264818  59.1317558  33.4650779
   8.6711091   0.7035700  37.5344849   8.4641975  -0.2126479  37.3501921
   8.7796104   1.1029075  36.6713572   6.6482228  65.9831429  52.0514727
   7.2946537  66.0149527  52.7567005   5.8376247  65.7109547  52.4816751
   5.1737660  62.1074867  55.4282331   5.4336548  63.0286980  55.4357624
   4.2654848  62.1123886  55.7302809  13.5468888  74.2637587  38.6637807
  14.4809806  74.3865776  38.4946060  13.5036612  73.4795523  39.2109442
  13.6241877  79.3553066  43.4785652  14.5079768  79.3509817  43.8461637
  13.0511606  79.2071056  44.2308331   0.6924173  52.7577353  32.1410918
   1.3469246  52.0876360  32.3381186   0.3319862  52.9987335  32.9944634
  66.0291147  61.4261103  33.1897831  66.4378548  60.6843567  33.6358404
  65.8437634  62.0533419  33.8886809  70.6810665  73.2367420  23.1498146
  71.2828112  72.6733589  22.6632595  70.0480747  72.6325464  23.5377574
  75.3228998  50.9242058  59.4175673  75.7086849  51.7959356  59.3310595
  75.8209705  50.5107641  60.1227093   9.8960358   5.9288156  50.3303146
   9.7085834   5.1988375  49.7402096   9.3610585   6.6493750  49.9974108
  75.8645248  49.6287870  45.0467920  74.9205017  49.6896791  44.9006844
  76.1302423  48.8417959  44.5711088  67.8183317  79.1481304  38.9474463
  68.1036711  78.2344627  38.9422655  67.3026419  79.2425442  38.1465816
  36.5757775  54.7778273   7.9370064  36.4750838  55.0524187   7.0255840
  35.7419777  54.3614197   8.1552112  12.0787787   0.7313710  16.9446349
  11.8300998   0.7152789  17.8688276  12.8331530   0.1447762  16.8893397
  70.7580853  63.7474203  27.3756433  70.0628662  64.3762922  27.5690937
  70.9073496  63.8373995  26.4344430   1.6937448  67.9094744  35.1760817
   0.8471264  67.4963951  35.3458953   1.4929986  68.8416719  35.0927687
   0.3616704  66.4975309  32.2346091  -0.3778858  65.9165049  32.0565701
   1.1055597  65.9077263  32.3570657  10.4526699  22.9089856  43.1605005
  10.2819407  22.7916336  44.0950155  11.1633182  22.2972441  42.9681873
  20.6799388  14.5662880  28.7776279  19.8537040  14.1009629  28.9081669
  20.9632659  14.3097079  27.9000616  26.8883848  11.8144381  45.5930281
  27.0370960  12.5558543  46.1799049  27.7660012  11.5381408  45.3290558
  21.3382387   0.3935665  34.4678450  22.2637248   0.2533084  34.6679306
  20.8808446   0.1639629  35.2767372  15.6866193   3.8476542  40.8872604
  14.8193717   3.9049897  40.4862309  15.8353019   4.7160026  41.2615585
  10.8897173   6.4778823  66.9698668  11.7059541   6.8650615  66.6535091
  10.2017951   7.0163357  66.5786362   5.9959644  60.8264828  35.2420330
   6.1290115  59.9863005  35.6809187   5.2682912  61.2308979  35.7144475
  43.3530045  25.6238031  69.7171736  42.9863930  26.0285830  68.9310551
  43.3846092  26.3330126  70.3592491   5.4810196  67.0024967  65.8617926
   5.6779587  67.0979214  66.7936420   6.3193458  67.1488857  65.4236031
   7.6935220  65.7667065  42.4845028   8.0727535  65.3203106  43.2415628
   8.3719069  66.3810301  42.2040844  22.1997046   2.7126521  21.4560604
  21.7464137   2.3313992  22.2079945  21.9933844   2.1252787  20.7289720
  85.8833694  39.4586682  27.3213148  86.3481331  39.1475558  26.5445042
  85.0469971  38.9935279  27.3023415  15.1054609  74.7958899  15.2186537
  14.5322275  74.2641020  15.7707715  15.9712279  74.4008780  15.3218198
  50.7092714  71.3102722  15.1548696  50.8638430  71.5899324  14.2525780
  51.4212227  70.6981993  15.3412139  40.5843258   2.3761031  37.6321197
  39.8827624   2.2803839  36.9880056  41.1782598   3.0195466  37.2455263
  33.2447767  11.6582048  15.1555097  33.6465716  12.4000525  14.7033429
  32.8100133  12.0471895  15.9143925  84.7915840  78.3065367   2.8746980
  84.7613525  79.2560291   2.7573246  84.4479275  77.9527283   2.0543578
  15.9244978  71.7485332  40.6924391  15.1470101  71.7473888  40.1341009
  15.7472956  72.4227047  41.3484287  13.2737851  55.7937288   7.4846351
  14.1770411  55.7811975   7.8011835  13.1858075  56.6393852   7.0449042
  53.7790298   8.9495975  46.4405346  53.3811760   8.7575424  45.5913830
  54.6792603   8.6344230  46.3600159  12.8350008   7.9812115  31.7146921
  13.4305787   8.2101065  32.4282217  12.9311240   8.6949718  31.0841846
  54.1430712   4.6029708  28.1216741  53.7802553   5.2812541  28.6913490
  54.6468687   5.0851470  27.4659896  40.5244875   1.1099164  32.9545617
  39.8861313   1.7273012  32.5973892  41.1672211   1.6612887  33.4007835
  12.9994512  73.7717199  42.9087019  13.6858535  73.2088757  43.2668781
  12.2352529  73.2000780  42.8348303  41.9001579   0.4110662  26.2424994
  41.9144487  -0.1735169  27.0003200  41.1127758   0.9416098  26.3640809
  38.7564802  17.0488143  30.0944090  37.9067802  17.4878454  30.0557494
  38.6032200  16.1944640  29.6908903  50.1876593   9.1624081  27.5962377
  49.9134350   9.8694408  27.0121646  49.9557638   9.4716156  28.4719348
  16.3340724  62.1685553  17.7208722  15.3920054  62.3251200  17.6558411
  16.4057004  61.2792587  18.0676460  43.4607458   8.6792451  54.7605324
  44.4175577   8.7041610  54.7716951  43.2040739   8.9380109  55.6456280
  59.2105961   1.9322775  44.7930908  59.1614628   2.8399402  44.4931459
  58.9496088   1.4140038  44.0318346  43.5060596   0.4722264  36.8790770
  44.0641594  -0.2625643  37.1337175  42.8042555   0.4767592  37.5299811
  11.4163005  80.5034161  30.5706024  11.8993664  80.8456421  31.3227701
  10.8683777  81.2344933  30.2850580  29.1556907   1.7849219  46.6211319
  28.6928654   2.6196787  46.6932917  29.1228390   1.5726981  45.6883335
  34.8543644  21.0677934  27.2035599  34.5220709  21.9576645  27.3216438
  34.0684128  20.5269384  27.1261787  78.4236002  78.4517622  12.7586389
  78.9710426  79.1801167  13.0519497  78.2487965  77.9482079  13.5536933
  37.1153259  11.6725218  19.0148723  37.0001388  11.6171908  18.0662405
  36.2310648  11.5794647  19.3693459  58.7442017   3.3714578  20.8620524
  57.9058456   3.3744597  21.3239932  58.7088060   2.5927243  20.3065777
  72.7065945  62.9735088  48.2252073  72.1372747  63.3546162  47.5567293
  73.2447863  62.3410320  47.7492285  53.9015532   0.1931025  39.1965365
  54.3948460   0.0409825  38.3904648  54.4508410   0.7902418  39.7044134
  74.5938301  68.2057238  47.6706171  74.6944475  67.7985096  46.8102169
  74.0648890  68.9862919  47.5057936  12.5847793  75.3389549  34.8808956
  11.9366276  75.5782843  34.2184353  13.4259057  75.5732203  34.4886446
  81.9328022  69.9253798  12.9773486  82.0357704  69.9238300  13.9289927
  82.4280167  70.6902361  12.6840997  22.9493761  65.2781725  17.9554248
  23.8935614  65.3888750  18.0671787  22.5921273  65.3617001  18.8395238
   6.5133560  72.4662638  44.6369410   7.1679938  71.9616842  44.1541576
   6.6878724  73.3763838  44.3972445  49.0247440  15.8734775  37.4156189
  49.6820784  16.1330402  36.7700386  49.4886541  15.2771533  38.0033398
   8.9829737  78.4955978  23.7983823   8.1524742  78.6500692  24.2485380
   9.4291872  79.3421030  23.8218307  21.5149593  58.2851696  19.7622252
  21.5140629  59.2423344  19.7539830  21.5036821  58.0376768  18.8376439
  35.4716301   4.8309734  26.5384603  36.1691260   4.6978918  25.8965731
  34.7303033   4.3335089  26.1932135   3.7067544  63.1885576  17.1008134
   3.8110492  63.3103657  18.0444860   4.2504585  63.8723040  16.7095220
   6.1069655  78.7941551  16.4816177   6.2524140  79.5978355  15.9824443
   6.8159103  78.7799501  17.1246016  28.8166428  16.1839151  31.5116835
  28.7042093  15.2424788  31.3801932  29.2495155  16.2569368  32.3622847
  80.7690144  65.3125858  44.0295315  81.4721489  65.4788256  44.6573877
  80.6538773  66.1458254  43.5727024  11.2036538  38.3229113  68.6865234
  10.2480662  38.3622432  68.7257242  11.4795887  38.2853532  69.6023226
  31.9467926  68.9030266  23.2712197  32.1783638  67.9810429  23.3832502
  31.8400526  69.0100288  22.3260260  41.1656380  18.7914836  24.2079377
  41.4757061  19.1963744  23.3979058  40.9237957  17.9010308  23.9533019
  50.2855587  13.6786723  38.3361363  50.0500584  12.9784822  38.9448261
  51.0310602  13.3302879  37.8471684  60.7347298  29.3683910  14.0912342
  61.2753868  29.1460705  13.3332801  61.2093592  29.0050268  14.8388481
   7.9467231  76.3048553  25.7520580   7.3331755  76.8063545  25.2151346
   7.8224909  75.3975344  25.4735470  57.6544189   6.4690048  29.4566202
  57.1709728   5.7554293  29.8729420  57.2606802   7.2651947  29.8133874
  38.0578041  14.0809190  18.0975103  38.8977051  14.1886640  17.6512015
  38.0854321  13.1907332  18.4482789   2.4093553  16.5685046  42.7245569
   3.0621755  16.4225435  42.0398998   1.6673407  16.9644117  42.2674942
  23.6031342   0.8539440  25.0538206  24.2568755   0.9890580  25.7398248
  22.7699423   0.8077050  25.5227375  55.6523466   9.1659313  24.7476101
  55.9974909   8.6176533  24.0429831  56.3287783   9.1401458  25.4243708
  29.7263408  68.9035940   8.6809117  30.1824689  69.7166872   8.8978434
  29.6391726  68.9247894   7.7279246  44.8057556  10.6027985  27.5372934
  45.7020855  10.6754208  27.8652501  44.7517872  11.2572026  26.8408227
  56.8285418  25.9859133  10.4876006  57.0596981  25.5538774   9.6653217
  57.6077843  25.8910203  11.0353303  59.3932676   9.6962559  13.7307906
  58.6474037   9.9672818  14.2660201  59.2653751  10.1468921  12.8960431
  15.7796562  75.4349470  45.7335377  16.4074183  74.7964048  46.0717773
  16.3156104  76.1861134  45.4791117  57.5532627  14.2786562  47.0862865
  58.3916950  13.9133501  47.3688030  57.6054955  14.2869890  46.1305475
  82.9894066   9.4162172  34.6675611  82.7566242   8.5710096  34.2832875
  83.1739902   9.9786323  33.9153290  57.4711943   6.9256437  26.6931725
  57.5596619   6.4719498  27.5313663  57.4870253   7.8551722  26.9211173
  46.0328293   6.8105799  35.3736782  45.0805283   6.7142081  35.3817105
  46.2648869   6.9726098  36.2880802  43.1689978  14.1575825  35.4455638
  43.3235550  13.2246447  35.2973390  43.4956074  14.5833659  34.6529317
  13.5950840  10.5470073  58.5667849  13.7669456  10.4884505  57.6269627
  12.8852689   9.9233192  58.7197828  84.2167759  79.3383741  31.3047671
  84.0674400  78.6619425  31.9653535  85.1687145  79.3767548  31.2122083
  52.8086996  18.7710476  17.6335347  53.1822968  19.5002401  17.1386266
  52.7558517  18.0544829  17.0010996  53.1249237  22.4765253  32.9824615
  52.1756029  22.4151635  33.0885744  53.3606911  21.6965747  32.4801421
  36.9678521  65.0734377  43.5769701  37.6016974  64.3574142  43.6191416
  37.2438407  65.6784868  44.2654276  48.5101080   6.7799497  17.6836646
  47.9017401   6.9638056  18.3994281  48.8315487   5.8964556  17.8635132
  51.1400509  79.9560785  33.4059858  51.6345024  80.6504631  32.9705739
  50.2562714  80.3122902  33.4969807  17.9506874  80.7631493   9.0553629
  18.8108850  81.1520386   9.2136604  18.0707812  80.2270412   8.2715261
  79.5450401  29.3933439  34.9256206  80.0998116  28.7242174  35.3265357
  78.9090061  28.8989091  34.4086790  49.5206642  74.9969006  34.2671227
  50.3082752  75.2269459  34.7600508  49.4125700  75.7125759  33.6407375
  56.8728209  24.1909504  18.2858384  57.1761513  23.3085179  18.4992278
  56.8685198  24.6521091  19.1246152  44.1543961  12.5209928  23.4208059
  44.6408129  13.2144034  22.9749227  43.7264252  12.9623532  24.1544795
  57.1786308  17.1477079  41.9328737  56.3213634  17.0688677  41.5144157
  57.5364733  16.2600935  41.9148922  69.7111559   4.2515662  13.7006891
  70.6649351   4.2846727  13.7744606  69.4629478   3.4502295  14.1616488
  11.6087270  64.2202663  46.9461679  11.4762473  65.0916195  46.5727663
  12.4751103  64.2623425  47.3509407  36.1273217  14.6164680   7.2871006
  35.4916430  14.2011523   7.8699023  35.9439659  15.5530214   7.3611403
  66.2331486  28.6870670  15.2419889  65.5193996  29.1472006  14.8003185
  65.8522797  27.8486013  15.5030394  20.9263849  79.6261072  32.8102589
  21.2317657  80.2801895  32.1816540  20.1537967  79.2398691  32.3977518
  47.4627590  11.3378882  28.4115148  48.3139372  11.5127683  28.0100942
  47.5917435  11.5307593  29.3401670  34.3202376   2.4187709  24.9609447
  34.7287464   2.0289196  25.7338405  34.8073506   2.0532301  24.2224789
  63.5594749  25.8352423  24.3010783  63.1052446  25.7972932  23.4593725
  62.8581572  25.9050155  24.9487782  52.9851437  16.3798809  29.4354653
  53.3420134  16.7601073  30.2381516  52.1306086  16.7984450  29.3314981
  52.5819778  25.1110578  11.7478478  52.4377918  25.1312852  12.6939094
  53.3851528  24.6018887  11.6388130  35.9555173  13.8988483  29.2548323
  35.6262374  14.6912646  28.8307071  35.3327894  13.7290847  29.9616718
  50.8737040  16.5630591   8.4412652  50.0592518  16.5925813   7.9392445
  51.4469910  15.9883153   7.9340714  24.6103072  21.1887956  34.2670274
  23.8907480  20.5964851  34.4852734  24.3359613  21.6087556  33.4517956
  37.5596905  10.5894673  31.7566609  36.6035533  10.6148553  31.7193937
  37.7671552   9.6785712  31.9651222  34.5681000  14.6043205  36.8984365
  34.2437434  14.4037962  36.0204768  34.8706627  13.7628675  37.2399712
  54.5719337  20.3980565  31.5022683  54.2416000  19.6203554  31.0524964
  54.3860865  21.1194253  30.9011722  63.9519167  57.5901461  63.7018251
  63.8505411  57.3693085  62.7759790  63.1481361  57.2724724  64.1132307
  45.1545620   6.0830778  27.8789163  45.0249815   6.8402886  28.4499431
  44.8052263   6.3594490  27.0316768  30.1126099  28.5723472   0.1818443
  30.1761079  29.1611505   0.9338489  29.8876739  29.1443825  -0.5519201
  62.0464802  19.1587281  23.4828448  61.8572855  18.3677995  22.9779983
  61.3246632  19.2220116  24.1083145   2.2768870  42.2567844  63.9670038
   1.5337181  41.7655277  63.6168623   1.8919308  42.8388739  64.6221495
  41.5320826  22.8959441   5.5491138  40.7327557  22.8329945   5.0262916
  41.2378216  23.2270527   6.3976461  36.0016751  79.0435791  28.1710887
  36.0153675  79.3613529  27.2682786  35.0726175  78.9273787  28.3700395
  46.1942625   6.8344045  39.9911761  46.2453365   7.5778472  40.5919409
  46.5336609   7.1723980  39.1624403  29.2628026  79.4708824  26.8483806
  28.4318709  79.3811274  27.3149967  29.0910339  80.1326466  26.1784625
  57.7331018  11.0956204   6.2834418  57.5466633  11.7939448   6.9109887
  58.5772085  10.7413542   6.5631115  46.6713285  55.7540560  61.6812611
  46.0117483  56.0466433  62.3102140  47.3052835  55.2673435  62.2079897
  57.3112488  18.3481371   9.3258494  57.4725866  18.2323444   8.3894765
  57.6751757  19.2103541   9.5267701  60.9822512   6.8253952   9.8925757
  60.5682468   7.5982195   9.5084196  61.0871220   7.0450836  10.8183026
  58.0557013   1.0083354  32.8354621  58.4356642   0.7734083  31.9888997
  58.2729530   1.9338641  32.9469466  52.5304317  43.5989618  22.2518325
  53.4416008  43.3225870  22.1537113  52.1039677  43.3087683  21.4455152
  33.9575148  53.8231182  17.1654928  34.1679478  53.9054918  18.0956352
  33.3845353  53.0579281  17.1164072  31.2605619  66.0146666  45.5879688
  30.4731321  66.1964464  46.1009407  31.9091129  66.6376591  45.9158230
  48.8210487  64.1219234   9.3469208  48.9499331  64.9248123   9.8518878
  48.4064484  64.4136000   8.5349703  51.6158104  22.9715276  20.5243206
  51.6774225  22.0980120  20.9108543  51.5803909  23.5638475  21.2754083
  46.1062956  23.0714631  12.5494623  46.2567806  22.3710608  13.1843030
  46.9188690  23.5773659  12.5538611  77.0309734  68.8753176  19.8885739
  76.3188505  68.4921980  19.3763888  77.6595068  68.1614685  19.9962652
  59.4110727   6.8915153  24.2328143  58.8572693   6.9970578  23.4592533
  58.8318157   6.5085703  24.8916340  60.7453156  15.5879903  26.0394835
  60.0547171  15.4683542  26.6913986  60.5991745  16.4688826  25.6946564
  45.7130575   3.9351052  11.9324684  45.4746008   3.8961923  12.8586733
  45.0251150   4.4652668  11.5301013  26.1499667  67.6592588  41.2458229
  26.1775517  66.7521667  40.9414387  25.3789401  68.0320263  40.8182764
  27.0228314  57.9191399  35.7565427  26.7898250  57.0408487  35.4556370
  27.3647189  58.3566046  34.9768209  77.2775888   3.1177431  28.8886213
  76.4186954   2.8150356  28.5938239  77.6783228   2.3468590  29.2903471
  40.6773615  12.0029092  26.3447475  39.8558211  12.3707831  26.0192108
  41.0351038  11.5195823  25.6000018  56.2158298   1.9353715  39.7367239
  56.2404633   2.8735238  39.5483232  57.1224070   1.7088579  39.9441981
  62.8569603   0.4174323  32.2362590  63.7323761   0.7668461  32.0695519
  63.0062819  -0.3479940  32.7912903  65.1979589  53.5957766  57.5953007
  65.3715134  54.3189669  56.9927216  65.2486324  52.8114176  57.0489979
  53.6325455   0.5339336  14.9390507  53.0383825   0.3060195  15.6540740
  53.6234856   1.4908105  14.9158955  57.7061415  22.1070671  32.1792912
  56.9062090  22.6238918  32.2753549  57.7799797  21.9528103  31.2374926
  61.0780954   5.9989214  45.5382442  61.7720604   6.5778238  45.2227926
  61.2983656   5.1410443  45.1752567  21.7935944  78.8209629  24.9365330
  21.7063069  79.7034788  25.2967739  22.1858931  78.9523268  24.0733552
  52.7399874  20.8342719  36.2250423  52.2613811  20.2659249  36.8284917
  52.2895050  21.6769505  36.2814975  57.3396683  11.2742925  17.3857307
  57.0407486  12.1836138  17.3896646  56.7925787  10.8394957  18.0398512
  17.5788844  50.5244875  10.6417501  16.6929948  50.6778669  10.9702432
  17.5365138  50.7664299   9.7166002  22.6225185  77.5965452  10.1982892
  21.8456554  77.8610516   9.7055906  23.0115628  78.4201956  10.4923570
  23.2539892  72.0821095   2.3594458  23.6565232  71.5179825   1.6991723
  22.5609326  71.5448427   2.7431774  29.3707585  64.5991755  43.7064219
  30.0822115  64.8647356  44.2891264  28.8028979  65.3680801  43.6558867
  37.9578972  74.1105843  22.4016118  37.9964113  73.5317373  23.1629825
  38.1352305  73.5374308  21.6557717  13.5938287  59.2839575  25.5263734
  13.8270390  58.9523125  26.3934684  13.8886511  60.1946115  25.5309868
  35.4067397  12.3356140  38.4439826  34.6577191  11.9847298  37.9622340
  36.0209107  11.6034389  38.4982514  48.5943127   2.0356344  32.4254394
  48.9468908   1.4576621  31.7487812  48.1689930   1.4450051  33.0471277
  22.5854969   8.0522811  14.7674525  22.7380729   8.9822823  14.9349320
  22.8363466   7.9294878  13.8519037  39.5940590  61.8863153  24.4335055
  38.8758540  61.7212772  25.0443840  40.2156162  62.4165821  24.9322224
  52.3339748  17.3338747  10.7936668  51.9318438  16.8115211  10.0996435
  53.2187366  17.5139213  10.4758406  58.4114695   9.6299750  43.2888222
  57.6068974   9.8803699  43.7429094  58.4015846   8.6728412  43.2942057
  57.0494270  19.4955814  32.5712204  57.3929644  20.3373885  32.8705049
  56.2223482  19.7135448  32.1414948  23.1654072  10.5989957  15.5001664
  22.2680020  10.3997099  15.7669628  23.6947393  10.3995323  16.2723410
  46.7869806   1.0617676   5.6500715  46.2517071   1.4456446   6.3445872
  46.6723442   0.1171289   5.7537431  60.4376078   3.6420667  22.9391837
  60.1077509   3.6515716  22.0406675  59.6575308   3.5159969  23.4793854
  31.6750431   1.6670923  25.6271219  31.2670183   2.5174212  25.7904887
  32.5648141   1.8786894  25.3446960  -0.0564027  80.3427887  41.7351484
  -0.2132868  79.5683622  41.1948872   0.8751192  80.2994823  41.9510746
  54.3880367  13.4088874  50.1584482  53.8367891  12.7050161  49.8165083
  54.2497635  14.1371131  49.5528078  51.4801216   3.1229416   8.1158161
  50.7564926   3.3652723   7.5380033  51.0545874   2.7818382   8.9024550
  24.1604447  66.5311098  34.5138407  23.7140656  67.3635101  34.3586612
  23.4912610  65.8664227  34.3506956  47.6681137   1.1207596  28.9063501
  47.8841686   1.6967317  28.1729960  46.8164062   0.7493658  28.6763549
  73.0429649   6.7550963  46.1331034  72.7619743   6.3741904  45.3011227
  73.0528164   7.6988071  45.9732723  22.3881745  68.8108969  44.0109491
  23.3420348  68.8779163  43.9674664  22.2265506  67.9783535  44.4547749
  38.0635762  26.7461252  31.6352272  38.5342789  26.7022753  32.4675417
  37.2182512  27.1358252  31.8583703  49.8063707  10.8215666  17.7522266
  50.1884031  10.0714505  17.2965848  49.2616940  10.4337430  18.4371734
   4.1473746  65.2655649  53.6304569   3.6864191  66.0485029  53.9317179
   4.2581156  64.7344923  54.4190788  17.0600796  75.8417892   8.1673092
  17.1530712  75.7682514   9.1171390  17.9011643  76.1892223   7.8704935
  65.9403133  21.0346842  38.0859971  65.5762482  21.9068027  37.9340124
  66.8843174  21.1462951  37.9736161  37.0655012  66.4126730  15.8350384
  37.8216648  66.2329292  16.3937318  37.0639372  65.6989670  15.1971889
  77.9546356  28.3056045  55.5521154  78.0991840  29.2081070  55.8364153
  77.7994394  28.3732152  54.6099997  26.3770652  58.8407183  13.9816666
  26.2334824  58.4667253  13.1123316  26.2749124  59.7841692  13.8563776
  36.8594098  20.5555749  29.0606189  36.0989976  20.9036231  28.5949254
  37.0833421  21.2358499  29.6956897  31.5675306   5.4381937  30.4616570
  30.9628296   4.9367058  29.9147773  31.1073041   6.2589431  30.6371331
  41.2793684   9.3336517   4.0660915  41.1482716  10.2502775   3.8235193
  40.3964710   8.9987266   4.2227665  66.2030792  18.2453811  27.9751611
  65.5240202  18.8029468  27.5953817  65.9812593  17.3625016  27.6792717
  39.3943906  11.9382107  22.5023150  38.9310765  12.6598680  22.9275012
  39.8588324  11.4989471  23.2147551  62.2658110  18.7337208  29.7216320
  62.6551437  18.6617243  28.8501573  61.5996838  18.0466914  29.7438669
  31.6115093  49.4883871  15.8075857  32.3401761  48.8680696  15.7855988
  30.8992243  49.0063810  16.2277699  39.9738431  10.5974793  11.8458223
  40.2580833   9.6864641  11.9199121  39.3849182  10.7258582  12.5894082
  52.7221203  24.3347096  18.5315752  52.9443932  25.0986886  19.0637064
  52.2783327  23.7415314  19.1377342  13.0345356  64.8032236  39.0857768
  13.9143693  64.9600983  39.4285798  13.1098282  64.9718809  38.1465650
   3.4874356  73.6963558  44.1746950   3.5079905  74.3842506  43.5094023
   3.7686855  72.9070854  43.7118959  51.2772942   9.6076983  39.9477744
  51.3307905   9.6487516  38.9929533  50.7208920   8.8490415  40.1240921
  46.6306686  13.5127640  14.0317357  46.6312933  12.9273987  13.2743847
  46.0633373  13.0791080  14.6691585  44.7920370  20.0362372   9.1390455
  45.5129862  19.8316181   9.7345251  45.1401663  19.8473024   8.2676429
  76.3661766   4.9007055  45.0003910  77.2529650   4.9329111  44.6414995
  76.2086439   3.9712924  45.1665449  80.2465248  13.8828576  33.6760116
  79.9514532  14.6633554  33.2069802  80.0744915  13.1608534  33.0715728
   6.8002856  79.7387314  37.1938205   7.3345792  79.1428471  36.6687632
   6.9096905  79.4292784  38.0929875  70.1414919  58.4904861  65.1699114
  70.0070333  57.5430870  65.1456213  69.3434334  58.8555384  64.7877121
  51.8926239  13.6165345  12.4399102  52.1633244  12.7029538  12.5311446
  52.0841360  13.8331020  11.5274119  44.5981121   3.9224848  34.7932076
  45.0435972   4.3311936  34.0510941  45.2832413   3.4245518  35.2391839
   4.3113512  18.3841169   9.2887443   3.5891983  18.7659192   9.7876966
   5.0662082  18.4465778   9.8739976  44.0767527  26.0549450  11.6021693
  43.8247919  26.2997365  12.4925768  43.8675404  25.1228452  11.5417433
  30.7148743  68.7959957  54.6947289  31.0899377  67.9705000  55.0015163
  29.7692466  68.6770391  54.7834301  42.0659685   4.2295456  45.8056450
  41.3713741   4.0445283  45.1735544  41.6063261   4.3613371  46.6348600
  60.5270767  27.3078537  30.7985544  61.1691523  27.0366049  30.1425099
  59.8244238  26.6617441  30.7274628  23.4645033  36.8347144   6.8639582
  23.9014244  36.0284686   7.1383590  23.1397724  37.2200680   7.6777679
  37.1060896  67.5252008  31.1969256  36.3611054  66.9243622  31.2117505
  36.7514896  68.3375216  30.8355045  69.1190290  19.1153967  24.0509319
  69.8205900  19.6816659  24.3724680  69.5057297  18.6540031  23.3067489
  63.9249468  20.2789378  13.1351054  63.2350063  20.7477164  13.6046374
  63.6273766  20.2630115  12.2254741  57.0741892   6.9404411   5.3141588
  56.7213011   6.4968830   6.0854942  56.8219757   6.3807869   4.5797148
  46.8814754  71.0406733  35.0655341  47.2302294  71.7496538  35.6058550
  47.6569414  70.5796099  34.7456789  58.0363369  28.5522270  28.0792165
  58.8658094  28.1271338  27.8612757  58.2480955  29.1280603  28.8139343
  44.3927717  28.2144380   8.2439768  44.5320368  27.2840691   8.4207547
  44.7027779  28.3367658   7.3466682  80.5831337  77.8990126  19.6489155
  79.7096157  78.2587910  19.4947457  81.0823822  78.6299992  20.0131130
  61.6058016  16.4820814  18.8083827  61.2291479  17.2486389  18.3762360
  61.2850428  15.7380605  18.2986975  32.5484776  12.6218832  27.7751303
  32.1647763  13.4296620  28.1164479  33.1777525  12.9153752  27.1162629
  33.0329633  73.2202673  25.3288293  32.1409917  73.5367775  25.1858687
  33.2898903  73.5995913  26.1692667  57.2704220   7.3527753  17.4547195
  58.2205009   7.3504347  17.5712299  56.9784021   6.5322191  17.8517652
  56.5427780  14.7488093   6.1785454  55.7139683  14.4098055   5.8403373
  57.0411968  14.9865413   5.3966945  75.1568699   7.1179020  27.9747105
  74.5566559   7.8601575  28.0456758  75.2532768   6.9770402  27.0328522
  49.7615719  12.2721791  27.4191785  50.1132822  12.4687982  26.5509200
  50.2958870  12.7940404  28.0178404  45.0093889  69.1879320  35.2354646
  45.5648184  68.4844398  34.8995709  45.6016159  69.9330854  35.3366780
  82.7774429  74.3929005  25.6075096  82.1441269  75.1043081  25.5124116
  83.2023239  74.5613098  26.4485455  83.5309696  24.8047066  30.9889555
  82.5804996  24.9061275  31.0395980  83.6628342  24.0925741  30.3630900
  10.2799356  56.0174084  29.1743660  11.0973763  56.4888954  29.0139723
   9.9827987  55.7504082  28.3045101  69.7945118   8.9761949  47.6949644
  70.7078409   9.2360163  47.8155994  69.8040915   8.4227020  46.9140768
  45.9780216  19.9260592   2.4681428  45.6510973  20.7964802   2.6955536
  46.8642044  19.9012065   2.8291065  24.8230124  14.4642520  21.6753244
  24.6900725  14.9953473  22.4604988  25.7714391  14.4610846  21.5460587
  33.8431787   2.7061731  43.1939936  34.1400981   3.0937415  42.3706722
  32.8885436   2.6981962  43.1244230  10.9628296  73.8661623  16.2216175
  11.8670118  73.7293243  16.5043926  10.7067549  74.6931887  16.6298819
  42.4729967   9.7711062  57.1708059  42.3204708   9.7477782  58.1154871
  41.9693279  10.5256224  56.8654299  52.2832441  17.4874008  26.8315744
  52.3854303  16.5851712  26.5286350  51.5501738  17.4521506  27.4460697
  40.7444191  24.6255183  24.6177721  40.9126711  23.6994243  24.7917628
  39.9357271  24.6299458  24.1056895  75.2559137  57.9009724  67.0041704
  75.4559135  58.6156702  67.6086903  74.3899918  58.1158209  66.6574001
  62.4101019  11.2246799  26.7821622  62.0738602  10.6964111  26.0582113
  63.1821632  10.7484722  27.0877409  78.1121445   5.6297886  26.5678072
  79.0689230   5.6211418  26.5408278  77.8899384   5.1219225  27.3481464
  16.3132691  73.8424158  25.4721522  17.2499096  74.0390730  25.4883599
  16.1681092  73.3038759  26.2500572  23.4913158  17.9850852  22.3989558
  23.0542588  17.1597493  22.6087999  23.2886004  18.5582006  23.1383324
  82.1489525  39.8906207  66.2710953  82.8062057  39.1972876  66.3305092
  81.3335419  39.4311213  66.0705900  49.6351719  14.9694741  48.1864595
  50.1427317  14.4880748  47.5331116  50.2186775  15.0349510  48.9424181
  29.1708899   9.5156819  10.8133197  28.9532375   9.0177619  10.0253248
  28.3235741   9.7835410  11.1690426  46.8844652   9.6158749  14.7731340
  46.1197662  10.1911676  14.7505748  47.1559381   9.6142095  15.6910288
  19.1702044  75.9834194  23.5651302  19.0827322  75.8377075  22.6231384
  18.3564770  76.4203405  23.8164830  59.6820879  15.5224967  44.1806221
  58.9077806  14.9631548  44.2424107  60.0824356  15.2857482  43.3440208
  60.5705833  32.3319316  37.5718784  61.1871529  31.6621637  37.2760987
  59.9106789  31.8476200  38.0680609  45.0283384  20.0622463  14.1882992
  45.3743029  19.6186364  13.4138644  44.6530294  19.3596721  14.7191191
  56.4376068  30.6397533  33.2819986  56.1586046  31.1465979  34.0445590
  55.9069920  29.8438215  33.3162379  85.1181793  34.7005177  43.5837126
  84.4257164  34.5805883  42.9338312  84.9285889  35.5501676  43.9816904
  63.6512947   7.2015917  30.5830169  63.4745884   8.1416845  30.6181288
  63.1333351   6.8880534  29.8416376  85.6956387  11.9218528  45.4206324
  84.9870205  11.4035463  45.0392580  85.3377628  12.8074229  45.4832172
  15.8898938  53.0187368  68.6459589  15.3849959  52.6725245  69.3817949
  16.7384589  53.2483721  69.0246916  70.4079199   3.0511293  37.8209758
  70.0048304   2.1845919  37.8744936  71.2458897   2.8989178  37.3840904
  53.8029671   2.5688967  26.0733938  54.4307756   3.2515231  25.8365250
  53.7101746   2.6478305  27.0228100  66.3476753  23.1776094  16.2298787
  66.1040306  22.8297663  15.3720486  67.2788763  23.3838964  16.1490023
  64.1036177  10.1410377  29.8033619  64.3398046   9.5204890  29.1138935
  63.9989138  10.9764898  29.3480706  20.9964013  11.3604009   6.5176100
  20.6377482  12.1854293   6.8446094  20.6884313  10.7018507   7.1402645
  55.5578566  38.8603997  36.4350891  56.2701702  39.2957640  36.9033790
  54.7917366  39.4100833  36.5998316  75.9983540  26.2755084  39.4565511
  75.4646397  26.3520360  38.6656499  76.0780716  27.1730590  39.7794747
  34.2029428  74.5046377   9.7365046  33.4472156  74.9403667  10.1305187
  34.8228812  74.4009066  10.4584110  64.2124319  25.5192065  27.1078253
  64.9332952  25.9193993  26.6215730  64.6050739  24.7577262  27.5346875
  38.5361266  17.5924408  60.9766293  39.1029119  17.5359488  61.7459106
  38.3080912  18.5200191  60.9147358  49.5313120  10.3919125  43.1203270
  49.6950054   9.9200904  43.9369154  49.9164152  11.2566924  43.2620382
   6.3985199  22.0054579  40.8622456   6.9777548  21.4460802  41.3797569
   6.6524994  22.8974342  41.0991049  56.5005112   6.7463833  33.3867335
  56.3540649   7.6746118  33.2045865  55.7927895   6.2970716  32.9246950
  65.8934927  20.4941392  33.8817978  65.7197094  19.7045445  33.3693814
  65.0624275  20.6852365  34.3165946  52.7290344  29.4439888  20.6675887
  53.1079197  30.1152205  20.1000261  52.7839041  29.8158216  21.5479064
  10.5172014  38.7184381  42.5828218   9.9041808  38.1471372  43.0454779
  10.2217662  39.6049094  42.7904749  55.6583357  23.6250734  33.0900311
  55.9993267  23.5183263  33.9780426  54.8675346  23.0861020  33.0707312
  46.4280128  12.8150308  26.0415959  46.1885023  13.7322128  25.9087658
  47.0955610  12.8386855  26.7272019  61.1749649  23.3925033  27.5330257
  61.5012980  22.8226185  28.2294226  61.4963818  24.2635131  27.7659774
  48.4371328   6.2245250  25.1717234  48.7325859   7.0856750  24.8761559
  48.1920338   6.3567138  26.0875201  51.0526848   7.8808403  18.5824585
  50.1522541   7.9487520  18.2649040  50.9845018   8.0186588  19.5272279
  62.0879793  26.1347270  37.7669859  62.4014378  25.3146291  37.3856568
  61.7420387  26.6279268  37.0231342  59.9029827  12.0510566  15.6546831
  59.4709396  11.6278565  16.3966215  60.7088661  11.5500295  15.5291772
  51.7548513  13.1978190   9.6180212  50.8959484  13.1103325  10.0313771
  51.6472864  13.9132881   8.9913112  56.0765123  34.2820024  34.7273159
  56.9806957  34.3423629  35.0355983  55.6161547  34.9769473  35.1977968
  66.9409323   8.8472939  12.7791095  66.1551332   8.7909448  12.2354412
  67.2445536   7.9427612  12.8557134  80.0427818  25.1413536  26.5874672
  79.4723606  25.4202819  25.8711910  79.5324278  24.4816113  27.0570540
  58.2354879  64.9984217  58.3255148  59.1650152  65.2176476  58.3899593
  57.9090405  65.0731897  59.2222166  60.1465988   6.1743802  48.9029837
  59.4428635   6.8215251  48.8561916  59.8039389   5.4889625  49.4765806
  51.2733173  12.9902685  18.4085333  51.2314034  13.6937666  17.7607954
  50.6859446  12.3156464  18.0677855  68.1356668   5.2512860  31.0972714
  67.3583746   5.6279725  31.5097690  68.8706923   5.6409574  31.5706897
  60.5469894  41.3909340  48.5209417  61.3234329  41.5666485  47.9894495
  59.8463202  41.8810701  48.0907488  47.2659349  14.3987656  35.7159114
  46.6753626  15.1372182  35.5670953  48.0419922  14.7898221  36.1172104
  62.3616934  11.1038661  12.5950527  63.2650042  10.9722555  12.3070550
  61.8602943  11.1807585  11.7833161  55.5636501  20.6770706  36.0074234
  54.6530437  20.9661984  36.0660243  55.9230471  20.8392668  36.8796396
  72.6180840  13.7898576  52.8653860  72.3961687  14.1636229  53.7181950
  73.2881451  13.1340945  53.0583239  58.0397415   5.8106571  46.5799284
  58.0723667   4.9638429  47.0249796  58.9576578   6.0577196  46.4675999
  14.5579934  75.7306814  56.5911198  14.8088777  75.0397921  55.9779596
  14.5612645  76.5304518  56.0652018  55.0759697  37.3489594  24.9339104
  54.9876642  36.7226100  24.2154956  55.0154829  38.2064509  24.5128632
  53.9867926  32.8005409  37.6914573  53.6824274  32.1433806  38.3173442
  53.8899517  33.6336279  38.1527829  64.3187046  17.8689957  23.4968376
  65.0304985  18.4605980  23.2527256  63.5224152  18.3806372  23.3540964
  57.9466963   7.2342610  21.6089559  58.2239008   8.1497496  21.6445923
  56.9927311   7.2699648  21.6790414  62.4458551  22.2651076  18.7468565
  62.1137810  21.7489195  19.4813704  62.0592260  23.1321526  18.8692641
  40.5491495  11.5395975  35.6117702  39.8402452  11.0757339  36.0573244
  40.1221228  12.2906721  35.1997375  75.8393240   7.6133305  15.2234817
  75.7922602   8.4174782  14.7064102  75.0787687   7.6564056  15.8030784
  56.7563248  22.7407932  21.0207939  56.0070467  22.1556067  20.9095645
  57.0519495  22.5836015  21.9175267   5.7044393  74.0556240  68.2832146
   6.3200969  74.7885561  68.2799578   5.4765868  73.9383125  69.2054653
  50.7349682  73.1027269  51.1789179  50.4872036  73.9401293  51.5708399
  50.1315260  72.4689198  51.5667057  35.6604266  29.3978763  16.1757004
  36.1519122  28.8122988  15.5997038  35.3804016  30.1144958  15.6062496
  69.4711351  20.0819325  16.5385866  68.9487076  19.7143114  17.2514367
  69.9200153  20.8303022  16.9318843  76.0833359  29.7016621  15.1705587
  75.5978298  29.2678547  14.4689000  76.0675240  30.6292295  14.9347627
  64.6615171  33.1928825  45.1134634  65.5383682  32.8221440  45.2130461
  64.6904230  34.0123057  45.6073713  66.9947672  31.2558651  45.6045198
  67.8936577  31.2871552  45.2770281  67.0535898  31.5934563  46.4982748
  38.5205841  70.3381538  17.3646605  39.3611908  70.0402975  17.0169652
  38.7457848  70.8020878  18.1710601  46.3775492   3.7487242  29.3819046
  46.2219810   4.5360279  28.8601923  46.6059875   3.0769381  28.7394476
  62.9352617   8.2476699  37.1321034  63.3951807   7.4142933  37.2330403
  63.1662846   8.5436201  36.2516069  58.2778358  10.0040781  21.4653158
  58.7122965  10.3520679  20.6866121  57.3530722  10.2161431  21.3385487
  66.3072014  23.8275981  44.2136383  66.4769602  22.9249144  43.9442396
  66.5600348  24.3552160  43.4560585  82.3761177  15.2378440  30.9779453
  82.7150345  14.5020413  31.4878058  81.4607239  15.3142905  31.2471008
  74.6039772  48.6839581  65.5702925  74.9619293  47.7966070  65.5437040
  75.3564596  49.2509317  65.4013634  76.5032005  49.1548395  36.3926554
  76.5220356  48.7092352  37.2395992  76.2766409  50.0606108  36.6035557
  84.8109436  26.3448048  35.0602984  85.2747726  25.6122947  35.4659152
  85.1399040  27.1190071  35.5170512  75.2567244   0.3758447  27.7203226
  74.8126984   0.7413678  28.4854794  75.7170105  -0.3936337  28.0553913
  79.4056606   9.7478479  29.2150378  80.2901745   9.9118698  28.8879681
  79.3660784   8.7987691  29.3329954  75.2443266  39.8193145  18.5641110
  74.6358871  39.2435193  19.0272450  74.7089958  40.2440310  17.8938365
  51.7920208  34.5461392  63.3525562  52.1761560  35.0611329  64.0620995
  52.1822405  33.6773992  63.4487247  71.5145636  15.4622209  59.6461010
  71.6164255  15.7073855  58.7264538  71.0454035  16.1979556  60.0395632
  53.4861183   2.1636367  52.3800755  53.0755854   3.0282450  52.3680544
  52.7535582   1.5498890  52.3262548  52.2749519  40.8349419  29.2606616
  52.1996355  41.4150143  30.0183392  51.4109898  40.8644009  28.8496470
  73.7328243  55.1480627  46.3116312  73.3745337  55.8007431  45.7100773
  74.6765661  55.1686859  46.1530209  67.3331451  23.2650661  21.6701484
  67.2918987  23.3666921  22.6210427  66.5286303  23.6734915  21.3505006
  34.9247169  80.9313774  21.1254930  35.7574201  80.7394791  20.6942010
  35.1303411  80.9174919  22.0602417  58.8301039  32.7101994  35.3004384
  59.4467354  33.0003405  34.6282673  59.3838835  32.4404335  36.0330939
  72.5406885  24.1451240  22.6855445  72.8880215  24.0257192  21.8016124
  73.1694078  24.7263718  23.1134415  67.5862265  -0.1579423  35.5805039
  66.7880583   0.1490724  35.1505041  68.2886696   0.3459937  35.1695895
  47.3905945  30.3978825   5.9501982  47.1777248  30.6940341   6.8351907
  48.1742573  30.8940005   5.7136184  67.2234678   4.9279472  19.7817922
  67.2052717   4.7319087  18.8450587  66.4213085   4.5339093  20.1245832
  48.2323551   9.5393890  19.8487937  47.8551245   8.8579428  20.4051757
  48.6309910  10.1562965  20.4625893  37.6086235  77.3215485  14.3746364
  36.9551015  76.8823433  14.9189186  37.7184319  78.1819153  14.7795343
  37.4785829  10.9686494  16.5097058  38.3409715  10.5637074  16.6021121
  36.9115615  10.2585828  16.2088311  74.3769312   9.9771982  28.9515257
  74.3329668   9.6617669  29.8541903  75.0977850  10.6069624  28.9527202
  61.2226486  38.7741566  52.1860647  61.0777998  37.9536247  52.6572084
  62.1692276  38.8070250  52.0477104   0.6997257  15.5571318  36.9541740
   0.8910415  16.3731897  36.4919186   1.0918707  14.8752809  36.4087081
  75.9677744  59.8317385  69.1283751  76.1204576  60.7718134  69.0325785
  76.8433714  59.4450474  69.1224480  45.2049255  78.5125017  29.8079038
  45.1234293  79.2232895  30.4438066  44.3768787  78.0367565  29.8730254
  73.6889696  28.6577868  45.4219723  74.4386721  28.3620334  45.9384060
  73.9541626  29.5126224  45.0826168  56.8767834  18.2288754  36.6180992
  56.3516235  18.9840996  36.3533831  57.2613430  18.4864044  37.4559665
   0.9667999  13.9522660  16.2345362   0.8477107  13.4619474  17.0479465
   1.8751961  14.2523050  16.2665427  55.6515789  28.3456063  27.0920610
  56.5328741  28.5747528  27.3870945  55.7857418  27.6316977  26.4687085
  49.9204826  22.1033525  10.9567916  50.8034372  22.4697900  10.9083068
  50.0478029  21.2149763  11.2896681  83.4596634  47.3885965  53.0509758
  83.0824471  46.5314150  52.8530312  82.7842617  48.0139399  52.7882624
  47.0382500  11.2342358  24.0465307  46.6675425  11.7824340  24.7381163
  46.9956923  11.7788517  23.2605195  76.1214972  19.5561087  47.8427839
  75.9214067  19.3809485  48.7623072  76.8314648  18.9495504  47.6324034
  51.2450218  30.1207757  29.1525698  51.5049648  30.7053471  29.8645663
  52.0268679  30.0475955  28.6052155  50.1818275  18.5245419  24.8019743
  50.8651018  19.0112662  24.3410301  50.6578112  17.9748607  25.4244876
  79.9430609  41.9900942  15.3228688  79.3597794  41.9730854  16.0816336
  80.7289696  41.5280104  15.6145084  70.2985287  18.8879490  36.0395885
  70.5762339  18.4540796  36.8463540  70.7111931  19.7507989  36.0773993
  16.1242855  78.8288212  44.4958210  16.2721276  78.7386370  45.4372263
  16.9023609  78.4432125  44.0931606  60.6572008  30.0015092  36.1345506
  61.3776970  29.4974422  35.7563448  60.3926039  30.6013846  35.4371500
  38.5654020  76.0928392  12.2279644  38.5638452  76.7516041  11.5335166
  38.0726767  76.4967299  12.9423380   0.5479841  39.5731258  44.8806238
   0.4507620  39.9331808  43.9990664   1.4909452  39.4457126  44.9846506
  66.2009192   8.9386022  33.4707832  66.0014343   9.6827728  32.9027629
  66.7312717   9.3105811  34.1754746  78.2258463   4.3162525  33.1243181
  78.9169455   4.8429286  33.5258460  78.4146547   3.4203523  33.4035039
  69.2589951  10.7338214  22.2642660  68.6238623  10.0453770  22.0670724
  69.2283964  10.8221996  23.2168865  60.8843756  15.3955221  15.1569045
  60.9769869  14.7559154  15.8629918  61.1861515  14.9339569  14.3745244
  50.0801802  20.8888435  26.5084386  50.3979778  19.9925864  26.6178060
  49.8887062  21.1853218  27.3981977  74.3828440   5.5086213  36.9853258
  74.3154383   5.8216006  36.0832548  75.1741743   4.9701405  36.9935155
  73.4629869   8.8866144  34.8985100  72.6972580   8.3304650  34.7550154
  73.2943439   9.6671969  34.3707967  63.6721516  30.4441309  28.0388474
  63.2860184  31.1813116  27.5658774  64.0861797  29.9133801  27.3583221
  52.7435160  30.0097370  16.3334632  52.4189663  30.2031016  15.4539680
  53.6743498  30.2302003  16.2991142  63.8894510  10.0945711  50.2016783
  63.4260845   9.3091410  50.4925728  64.6796894   9.7624820  49.7756767
  68.9257193  12.3394668   5.9134108  69.2160082  12.1361017   5.0242496
  69.5341635  13.0137599   6.2156677  64.8416805  36.0092354  38.0967093
  64.2159748  35.3094435  37.9095888  64.3080616  36.7177653  38.4565234
  54.7980881  22.5012946   8.2025915  55.3138685  22.9670763   7.5443757
  54.9115753  23.0141902   9.0027738  64.2209148   5.8617491  21.8839192
  63.3592939   5.7878774  22.2942638  64.6372986   5.0154597  22.0471668
  69.9286366  35.6305718  38.4571910  69.0235901  35.9401226  38.4932327
  70.0686693  35.2011108  39.3011022  58.7813091  30.4510522  17.6384926
  59.5009327  29.8200560  17.6236951  58.6145401  30.6023693  18.5688269
  44.2749500   4.7412440  38.5728836  44.8691845   5.3762245  38.9727783
  44.8518229   4.0705684  38.2073092  38.8445568  79.6262646  29.5396471
  38.9260769  79.9222755  30.4462695  37.9192996  79.4006157  29.4436455
  44.3934679   8.2933825  29.3063402  43.6844778   8.3858991  29.9427390
  44.3706656   9.1068840  28.8024259  81.8794060  66.1978149  62.1367359
  82.3638058  67.0086145  62.2922564  82.4572659  65.6767464  61.5792513
  72.1817636  32.7245474  41.2637234  71.7602396  32.3010015  42.0114899
  71.7409277  32.3543835  40.4989576   9.3851894  54.6759462  13.7044382
   8.8039654  54.7429323  14.4620156  10.1568902  54.2158031  14.0345621
  61.0414982  17.2716284  21.5106010  60.1609898  17.5654697  21.2769508
  61.3849831  16.8815315  20.7068133  69.1213274  17.1591866  21.9513774
  68.3198309  16.6594708  21.7960835  69.7215796  16.8686032  21.2647271
  63.2261419   1.4724298  27.0566058  62.3337889   1.6042368  26.7363524
  63.6437273   0.9315534  26.3863039  21.3712096  80.2899837  16.1107898
  21.2486553  80.5271244  15.1915658  20.4832458  80.1716137  16.4480460
  27.3522162  74.2167282  38.4019160  27.4906731  74.3465090  39.3401146
  26.5507936  74.7031021  38.2085443  64.6457386  39.2926335  18.0116069
  65.0757217  40.1300097  17.8379822  63.7450123  39.4195724  17.7135861
  63.1121683   9.0757376  44.0811062  63.2572699   8.7481874  44.9687386
  62.9102230   8.2937938  43.5672855  32.4711108  70.9615040  29.1562915
  32.1091962  71.3952446  28.3835578  32.3245692  70.0289059  28.9981413
  72.6789141   8.5890269  40.8253002  72.7878618   8.0271536  40.0580597
  71.7793798   8.9099371  40.7613707  83.0657387  62.5765991   1.4098129
  83.6377525  62.2441816   0.7180509  82.5809956  63.2913065   0.9969579
  57.4202108  15.6250322  24.3574715  57.7280235  15.6541502  25.2633619
  56.9347382  16.4420176  24.2430902  57.9551792  18.3998346  22.0903444
  58.2571554  19.1639924  21.5993190  57.5581694  18.7648535  22.8811502
  53.2660341  12.1399093  28.1250358  52.5181723  12.6655006  28.4090972
  53.1354523  12.0267391  27.1835613  71.1230803  24.1610003  41.3432789
  70.3168964  24.2981100  40.8457851  71.8082428  24.5529485  40.8018351
  40.6712008   4.5593134  59.0720797  41.1383343   4.1856229  58.3248329
  40.1068926   5.2314627  58.6899805  57.0998192   4.1432709  36.0198641
  56.3151026   4.5310441  35.6324601  57.2674274   4.6711683  36.8005443
  77.1214151   3.5201672  13.8003600  77.5318766   3.2425055  12.9814219
  76.6654301   2.7400896  14.1162515  52.9945040  17.6229227  15.3147101
  53.0245256  16.7367947  14.9540067  52.3692560  18.0870569  14.7580433
  40.0177574   5.4945970  34.7776675  39.4417858   5.9670776  35.3787088
  40.7950497   5.2938002  35.2989435  56.7370558  11.7322028  26.1290526
  56.5149403  11.4416671  27.0136333  57.2185564  10.9971976  25.7493734
  59.3284655   8.2999516  32.2612691  59.9342823   7.6651406  32.6436734
  59.2459965   8.0312192  31.3462758  57.0772982  26.2435603  25.8019876
  57.6732302  26.9067693  25.4537725  56.7799377  25.7603168  25.0310898
  33.9375997  63.3275414  30.5666947  33.1292987  63.1363535  31.0424328
  34.3066001  62.4674177  30.3660679  39.3890810  80.3361511  22.6119661
  40.1142883  80.6961632  22.1013784  39.8045325  79.9692631  23.3923650
  53.3153725  22.9017019  13.6434412  53.8703156  23.1976008  14.3650484
  53.8544130  22.2669458  13.1714773  61.6065025  33.0395961  34.2763352
  61.4721727  32.5182748  33.4848738  62.5576305  33.0891514  34.3719339
  71.5334606  18.1185412  33.8241911  70.8080912  17.7071345  33.3542824
  71.1403608  18.4438753  34.6340442  62.9336500  41.8370199  42.9778671
  63.6172152  41.4710236  43.5391331  62.4348450  42.4158764  43.5543633
  58.2315207   6.1442745  37.7224874  59.1517496   5.9066081  37.8361583
  58.1781530   6.4730728  36.8251157  36.4683080  11.9336748   9.6890593
  36.4424133  11.2187397   9.0531117  36.1611366  11.5393424  10.5053794
  66.1634731  36.1138082  35.5569339  66.5384579  35.2418733  35.4330564
  65.7828808  36.0883379  36.4348483  59.8859882  23.9533043  11.1316013
  59.7613001  23.3331895  11.8500328  60.2487707  24.7342873  11.5495586
  40.4147768  17.9758596  13.7980223  40.3097439  18.2446563  12.8853619
  41.0419703  17.2535586  13.7643111  27.6433921  66.8275833   6.3901550
  28.3071446  67.4228287   6.0418063  28.1063795  66.3131046   7.0513535
   2.1994092   3.8167381  17.2860730   1.3590536   3.7404439  16.8341732
   2.1871100   3.1132340  17.9350436  75.4324770  29.2865729  37.8653693
  75.8116817  29.1681218  38.7362337  75.0686407  28.4293509  37.6439452
  67.2368813  10.2612209  44.2897606  68.1831026  10.4038489  44.2662191
  67.1256447   9.4815910  44.8338509  76.3948059  44.5154285  23.3110237
  76.5685177  44.9570942  22.4797654  75.4434061  44.5544720  23.4087515
  65.2153921  40.9080362  26.3244891  64.7538090  41.5923500  25.8398294
  66.0797167  40.8662176  25.9153080  70.2202225  62.8853559  36.2634063
  69.4954538  63.0256844  35.6541014  70.9985018  63.1557941  35.7761931
  79.1180277  30.5954170  26.5782475  79.4943094  31.0819554  27.3116803
  79.7285414  29.8728919  26.4317441  62.5226593  37.4435019  20.5354476
  61.8908358  37.5104380  19.8195231  62.6603222  36.5027523  20.6462336
  69.0906906  43.7422037  23.2723498  69.4699192  42.8703737  23.1612897
  68.3138847  43.7385130  22.7130723   1.1242384  54.9949121  24.0825748
   1.0094927  54.0677595  24.2910290   1.8488270  55.0119400  23.4573436
  81.8229103   4.7661218  47.2010660  80.9143925   4.8402628  47.4932003
  81.8504906   3.9446157  46.7105579  74.1394424  27.0944810  10.9380281
  73.6902618  27.0147276  11.7795205  74.1028214  26.2147164  10.5626559
  62.7489901  35.7723594  45.4851675  63.0955887  35.0985074  44.9003363
  62.2098207  36.3257051  44.9200678  71.3637829  42.8761864  19.3556786
  71.0080671  43.2540369  18.5513604  71.2504530  41.9319248  19.2472470
  57.7868700  15.8074725  16.2792385  57.4949217  15.1319242  16.8913114
  58.7259436  15.8909762  16.4447641  77.2537327  47.7154875  43.6878777
  78.1485844  47.7974129  43.3580828  76.8869734  46.9754648  43.2040548
  85.7169437  45.9410620  47.1075487  84.9950504  46.5686893  47.0731926
  86.3393688  46.3254833  47.7248287  69.6934938  64.1130352  38.7809229
  69.9845982  64.0310049  37.8727579  68.7485743  63.9647770  38.7438726
  69.7428703  29.7993517  27.4640274  69.5361042  29.2329717  28.2074618
  69.9450874  29.1939735  26.7506862  62.4234104  30.9444213  22.2293377
  63.2800388  30.6957698  22.5766039  62.1907616  31.7380404  22.7112865
  82.6231956  62.7360201  23.8061476  82.1729565  62.6293755  22.9682064
  82.5175762  61.8914080  24.2439890  55.3556967  17.3215401  24.1415191
  55.0669670  17.8719711  24.8694563  54.5633268  16.8664789  23.8563824
  70.3481054  41.7315054  44.0193129  70.4989672  42.6020622  44.3875647
  70.8679342  41.1454153  44.5693207  68.0618858  51.4222860  14.1678131
  68.3767509  50.7920742  14.8158312  68.2911444  51.0329247  13.3239698
  80.0158691  44.3361950  48.7613583  79.6761084  45.1538992  48.3978319
  79.2370176  43.8031054  48.9208460  63.0065298  42.1853161  51.6015959
  63.1695461  41.5482616  50.9060240  63.5480642  42.9391479  51.3676929
  78.7611246  29.8442125  37.7384090  79.5068789  29.3749642  38.1124234
  78.8406086  29.7067451  36.7944741   3.6393532  38.1152773  26.4755511
   3.2898968  37.6693702  27.2470951   4.5895055  38.0472803  26.5694618
  63.0667400  21.2882423  25.7844162  62.9911995  21.2548065  24.8307872
  62.2328186  21.6551161  26.0780215  66.9252634  41.0082054  53.9828730
  66.1048079  41.2910223  54.3867254  67.5943756  41.2007141  54.6397305
  65.2869415  37.9849315  20.7391214  65.1794815  38.8535047  21.1267591
  64.4357204  37.7907801  20.3467464  10.9984338  37.1810961  25.2031088
  11.6184902  36.6570163  25.7101607  11.0355115  36.8096471  24.3216991
  63.4047842  31.0073924  37.6101327  63.8461018  31.8520594  37.5206661
  63.6917782  30.5052400  36.8474317  78.8843727  35.3975725  31.2626815
  79.6344471  35.9814286  31.1498451  79.2717171  34.5306087  31.3833809
  81.0821342  63.0340815  21.2835646  80.3525734  63.6465454  21.1893940
  80.6711674  62.2107410  21.5471053  70.6829977  55.8656788  39.7003961
  71.0193443  56.2226248  38.8783932  69.8706293  55.4230547  39.4546914
  62.6822567  46.5554619  33.5678697  63.2186127  46.5157223  34.3596864
  61.8293381  46.8660593  33.8716626  80.7921886  24.5528245  31.3345790
  80.4770184  25.4456472  31.1939979  80.7477093  24.4296408  32.2827768
  73.5083866  26.6566038  32.1293926  74.1919327  27.0013428  32.7039838
  72.9290724  27.4022055  31.9722199   6.6214943  64.9946976  24.5490932
   7.4569833  65.4129648  24.3411374   6.0248721  65.7234001  24.7201800
  75.6534624  14.1213620  54.3727016  76.5458393  13.7751615  54.3668604
  75.1442862  13.4794641  53.8777924  72.3737335  18.4216189  22.5595593
  73.3292484  18.4473073  22.5089645  72.1594000  18.9641023  23.3185077
  11.0955775  64.9600887  70.0067043  10.8833206  64.0722227  70.2945900
  10.3606772  65.2127934  69.4478750  71.9963360  11.1575186  25.4595208
  71.0403633  11.1818266  25.4176736  72.2410202  10.4099131  24.9141335
  79.0959311  33.6994052  26.8833709  79.0757847  33.1111240  27.6381898
  78.4572029  34.3806481  27.0935297  47.4270630  32.1321726  50.9714651
  47.4300575  33.0857539  50.8883524  47.3993444  31.9740868  51.9151163
  78.9416647  21.8958735  53.3746386  78.9687586  21.3404512  54.1537428
  78.0147696  22.1073341  53.2633638  54.7213268  40.2112389  21.0517526
  54.2628670  39.4470644  20.7023454  55.5286312  40.2609634  20.5398774
  65.2730846  28.4690857  26.3313007  64.9805975  29.1615510  25.7386994
  65.5327272  27.7523136  25.7524586  83.9867973  14.5113850  33.4920049
  84.7788429  14.3584609  32.9767299  83.8546181  13.6960530  33.9757347
  51.5025282  38.9346886  67.0711136  51.4773607  38.8211584  66.1210060
  52.2985649  38.4795523  67.3457146  73.4575081  39.4767809  48.0371857
  73.2121134  40.0294447  47.2951746  73.8934517  38.7226748  47.6403141
  63.2464552  27.9084015  29.6927619  63.3234787  28.8291264  29.4426250
  64.0292931  27.7360392  30.2159095  71.8073463  34.7598171  21.1258101
  71.7747736  34.8071694  20.1703358  70.8905602  34.7949696  21.3987494
   1.3206723  64.3007994  23.9830756   0.4918262  64.7621584  23.8550425
   1.7864150  64.8220634  24.6369886  10.9836972  30.7195663  43.5715246
  11.4467692  30.7039189  42.7339363  10.2545094  30.1108122  43.4534693
  82.4715137  24.6221256  33.7790561  83.0443573  25.2977729  34.1417909
  82.9207897  24.3271160  32.9870009  66.9796085  46.5658236  32.7299309
  67.5609255  46.2097836  32.0579624  66.2386703  45.9601879  32.7510214
  67.8398418  31.7877412  32.9156232  67.5555944  31.7487645  32.0024323
  68.7945461  31.7343187  32.8717875  52.1735048  27.8866863  51.2506437
  51.9453621  27.9329014  52.1791077  52.8476667  28.5564637  51.1360359
  74.0031004  29.9631214   0.8998152  74.2623758  30.0732231  -0.0149994
  73.0870819  29.6885800   0.8577648  79.6125412  32.7918720  32.7185082
  79.8733521  31.8787026  32.5987887  79.0798759  32.7865314  33.5137868
  23.0709124  71.3488626  24.5045304  23.2402086  71.9818115  23.8067150
  22.2738242  71.6670942  24.9283361  16.4969325  25.3438044  15.2457035
  17.0071292  25.9636998  14.7244930  16.4686489  25.7323790  16.1200273
  55.6369591  37.4731898  19.2795622  55.8483219  37.2444439  18.3744466
  56.4760303  37.7253175  19.6650767  85.6200409  53.9499140   4.4588128
  86.5519524  53.8726187   4.6632373  85.2285767  54.3058872   5.2564788
  62.2102070  22.1343350  14.3053687  61.4407539  22.5260115  13.8921309
  62.6383591  22.8634644  14.7540200  78.5070801  28.0124164  20.5058217
  77.7615881  28.5711074  20.7256842  79.2729712  28.5143018  20.7846642
  67.7021933  34.3795967  12.6255441  66.9750690  34.2579126  12.0150387
  67.2824764  34.6011090  13.4568095  59.3919277  38.2378745  38.2301712
  58.6853743  38.8088441  37.9284930  60.0760412  38.8388228  38.5252666
  57.5742674  20.9639120  29.6420789  57.2473192  21.6919184  29.1135502
  57.0274305  20.2200127  29.3894601  85.7001972  45.1599932  15.6302643
  86.5468979  45.3199339  15.2134228  85.1535320  44.8001194  14.9317825
  79.4347763  24.8304391  12.3357153  80.0508976  24.8909545  13.0657637
  78.6299133  25.2279568  12.6679862  70.1796055  24.6054864  23.9534569
  70.9359217  24.3144011  23.4440613  69.9693489  23.8607931  24.5168900
  45.4027414  15.3220320  27.2240925  44.5018530  15.0436902  27.3889065
  45.3150988  16.1553228  26.7612982  72.6508522  35.8201218  11.9674861
  72.7200413  36.6156721  11.4397097  72.9927778  36.0714173  12.8254914
  70.7979584  45.9808922  31.4181042  70.2038860  46.6558123  31.7464113
  70.6904030  45.2502918  32.0271087  72.1323538  37.9272866  14.3359733
  73.0304432  37.8403091  14.6555090  71.6261339  38.1766462  15.1091456
  67.8363228  44.9384928  30.2655888  68.4682274  45.1696873  29.5847988
  67.0010662  44.8685694  29.8033237  85.7421684  38.7350798  20.2846122
  84.9210167  39.0412426  20.6695843  85.8586884  39.2786050  19.5053577
  54.0623808  22.2537541  29.7103167  53.6722994  23.1253409  29.6439576
  54.7126341  22.2282934  29.0083528  81.3282299  45.5811930  52.7208138
  80.4077625  45.8139277  52.5990868  81.4834499  44.8793745  52.0886850
  80.1115608   8.3162242  55.8153105  79.6541071   7.8631353  55.1070166
  79.4631147   8.9256406  56.1679554  74.8913622  37.1698022  44.1757536
  75.0950098  37.6235175  43.3578873  75.3855991  36.3516259  44.1252470
  71.9780064  37.9010081  31.7807126  72.7540588  37.8860855  32.3408508
  72.0184517  38.7486982  31.3379717  69.1460609  14.5101416  49.0856838
  69.6248627  14.3331528  49.8954105  68.9726019  15.4511595  49.1108084
  35.9250975   3.7489042  20.5823112  36.7043352   4.2720371  20.7703304
  35.8266878   3.7989756  19.6315002  77.5540829  71.9790792  36.7386484
  76.9286680  72.2746420  36.0770345  77.0168400  71.5347147  37.3945022
  75.8188105  30.5527854  18.1234431  76.1493921  31.3982606  18.4269524
  76.3069677  30.3797245  17.3184693  77.0193052  52.6249456  61.4380360
  77.8150415  52.3520231  60.9813595  77.3337507  53.1487131  62.1749401
  64.0518188  46.2543297  35.7437539  63.8268900  46.1885309  36.6718221
  64.6979189  46.9594145  35.7033038  34.9683619  61.7831993  50.0329065
  35.5242777  62.2433138  50.6617785  34.1449523  61.6414356  50.4999495
  68.0181551  26.5269732  43.3523560  68.6435699  26.2441349  44.0195036
  68.5600185  26.7513394  42.5958681  58.1957865  46.6665745  61.6670609
  58.8035631  46.2002993  62.2410202  57.3915482  46.7420959  62.1806049
  67.2705317  59.2410469  34.3569398  66.8522215  58.5629892  34.8874903
  67.6291800  58.7695837  33.6050558  75.0550890  47.3995161  10.1320088
  74.5935440  47.4005508   9.2934352  75.7460737  48.0533600  10.0258946
  79.2967081  53.4223175  35.4561019  79.3682146  52.4849319  35.6361747
  79.9754810  53.8229990  35.9991932   6.7181420  44.1145229  26.5353823
   6.3843298  43.2872534  26.1883593   6.0370100  44.7539330  26.3269424
  73.2147074   1.4807646  13.6062145  73.1362677   1.4366783  12.6532531
  72.5082397   0.9223818  13.9307749  16.1147964  23.8535309  12.2258234
  15.3858161  23.8559842  12.8461564  16.2899959  24.7795606  12.0584714
  46.2608528  38.5862041  11.5664124  46.1513615  37.6378417  11.4967704
  45.3798151  38.9168000  11.7416549  58.0513906  14.2319596  18.4922719
  58.2350206  15.0073540  19.0226269  57.6207209  13.6259198  19.0951562
  82.9239559  30.8307958  16.0040724  83.3389568  31.4081907  16.6448629
  82.2007370  31.3476229  15.6489897  73.4771919  45.8276320  53.2883787
  72.6830244  45.9699535  52.7733278  73.6176205  46.6565371  53.7460184
  66.8721104  47.5363064  24.8077297  66.6880178  47.0902109  25.6343746
  67.8271627  47.5373697  24.7436571  68.6957264  26.4868140  40.4987288
  69.3844128  26.6605210  39.8570371  67.9707813  27.0515418  40.2308369
  46.5156507  49.9796009  22.0066977  46.2430382  50.7955885  22.4263144
  47.4315405  49.8725891  22.2634530   8.6522120  47.8498173  49.3915796
   7.7680659  48.1955004  49.5141459   8.5336959  46.9013166  49.3412638
  70.4140902  24.5364881  54.0402699  69.8834038  24.3778205  53.2596111
  71.2939692  24.7027302  53.7020206  67.8296089  40.3298092  49.8068905
  68.4289503  40.4968643  50.5342960  68.3898544  40.3268766  49.0307808
  22.1016645  80.1105309  68.8191223  22.3465848  79.7758770  69.6818256
  22.4507523  79.4655085  68.2040548  79.7012949  17.2566712  26.1615992
  79.0959120  16.6620541  26.6045141  80.1128197  16.7191708  25.4848647
  63.2608080  30.6863594  45.2903271  63.4859133  30.3366375  46.1524487
  63.8565683  31.4256263  45.1687288  84.4220257  73.7720585   9.3566018
  85.3736401  73.7956762   9.4571322  84.2735100  73.1768465   8.6218268
  52.7439022  30.6448960   8.1386226  53.0933475  30.5614495   7.2514051
  53.5192156  30.7054210   8.6967063  58.4098005  25.0438166  27.7811766
  58.0269194  25.7023478  27.2015500  58.9404678  24.4955325  27.2032428
  70.6107092  51.9166565  27.7484941  71.1232281  52.3193073  27.0474744
  69.7306252  52.2767687  27.6389360  15.0077534  56.9321871  40.3433132
  14.1523755  57.3603201  40.3077698  15.1378298  56.5833712  39.4614768
  73.0114985  66.4316750  12.8671908  72.2306347  66.3928699  12.3149407
  73.1526613  65.5270147  13.1462896  61.6144276  27.8661108  69.4526386
  61.0772276  27.0761395  69.5125866  62.4758148  27.5498819  69.1801691
  77.9793024  38.4483552  46.5299225  77.7209663  39.2626667  46.0981941
  77.7068043  38.5630369  47.4403191  53.5338783  10.4804277  25.7156682
  53.4013414  10.0010979  26.5335369  54.3030214  10.0706148  25.3198123
  74.2421675  28.5229087  19.2826319  74.6602917  29.3837214  19.3028700
  74.9496984  27.9083300  19.4773793  61.8433619  37.6699209  27.4997091
  62.6438618  38.1495786  27.7126932  61.4784145  38.1352258  26.7470217
  52.7647543  11.9798505  36.8538928  53.0364132  12.8437471  37.1639156
  53.5795736  11.4819002  36.7879653  70.3396797  23.4516144  35.1459384
  69.5326805  22.9695845  34.9653006  70.1892996  24.3194509  34.7711349
   3.9598581  56.8822241  65.4020834   4.4121346  57.6642179  65.0856018
   3.0674526  56.9696140  65.0671101  67.5377274  47.5388956  28.5379386
  67.6509953  48.4554482  28.7896061  66.7191648  47.2746134  28.9578676
  64.0945911  44.1624022  22.3219061  63.7648869  45.0563288  22.2301149
  63.8894033  43.7443829  21.4856124  75.1224566  61.9590425  10.3255093
  75.1972628  62.9097033  10.4084766  74.4155931  61.8286753   9.6933830
  84.7800255  30.5924344  12.2118115  85.2518749  29.7982240  12.4624574
  85.3508854  31.3083148  12.4908757  80.6357384  36.4076972  11.8022013
  80.3868198  37.1244526  11.2186480  79.8041344  36.0689712  12.1337545
  67.5986814  36.7708230  38.3889627  66.7209387  36.4390326  38.1999683
  67.4520779  37.5226808  38.9629412  67.4990368  36.5117073  23.4926319
  67.7075243  36.7792106  22.5975299  67.8928328  35.6437612  23.5810947
  58.5666084  30.3139997  38.7142539  58.1963396  30.1587605  37.8453255
  58.1466579  31.1206365  39.0129352  72.8296089  52.2385693  36.2301564
  71.9320440  51.9453287  36.0732627  72.8805542  52.3569870  37.1786356
  52.6688528  40.6449938  56.0324574  53.6043262  40.6784010  56.2324858
  52.4257231  39.7303987  56.1760998  74.2988253  35.6555748  55.0580215
  73.4145164  36.0198402  55.0187635  74.8676062  36.3784504  54.7931242
  55.2437878  30.5513668  15.8932436  56.0137081  31.0278320  16.2037838
  55.4633284  30.3001928  14.9960566  73.8431597  27.3186469  27.6707888
  73.5862970  26.4094591  27.8245211  73.6295700  27.4756265  26.7510223
  58.7992907  26.4028788  67.7841425  59.3550301  25.6361890  67.9240513
  58.4185362  26.5827727  68.6437321  79.5491648  35.8040404  20.5540013
  79.4059658  35.7509208  21.4989376  80.4809856  36.0035443  20.4638100
   5.9359950  24.5764542  43.8780165   6.5710801  23.9362526  43.5570145
   5.1996672  24.0489388  44.1875029  11.2646854  51.4064741  17.8330493
  10.4283404  51.3127041  17.3770142  11.8983722  50.9705830  17.2632480
  59.3838406  35.2217174  57.7823639  60.0362778  35.7869220  57.3687172
  59.8861074  34.6850419  58.3955002  54.6436453  30.7033539  28.4776258
  55.1419163  30.6569195  29.2935896  54.6719599  29.8124790  28.1286669
  53.5246849  25.8789301  21.9130492  54.1689205  26.0486531  22.6003504
  52.9128742  25.2567983  22.3065877   3.4294260  43.8124275  32.0015883
   4.1715550  43.3948851  31.5644002   2.6662758  43.3178377  31.7029023
  56.1539173  31.1065125  30.5608892  56.4921236  30.8533025  31.4198041
  56.6574669  31.8857574  30.3254175   9.4007647  36.8640637  44.6294355
   8.8452405  36.1593485  44.9626017   9.0910733  37.6479840  45.0830793
  68.5306835  20.0816536  28.5050917  67.8285885  19.6018255  28.0657053
  68.6040306  19.6655965  29.3640161  10.7577825  76.5779400  31.2750387
  10.1232874  77.1277761  30.8153319  11.0151446  77.0957422  32.0378494
  67.0204735  60.6555605  44.0447378  66.0843325  60.8520222  44.0090704
  67.0627785  59.7408056  44.3234301  85.6376821  18.9323866   7.7098078
  85.5695088  18.5855901   8.5993671  86.4071298  19.5012903   7.7328402
  53.4503889  24.8457766   5.9940708  54.0729904  24.8345637   6.7210340
  52.6926470  25.3209972   6.3349915   7.9607087  28.3571172  19.2485011
   8.0616045  27.8846669  18.4221590   7.0140469  28.4113431  19.3793535
  14.1216588  48.5878134  27.7522588  13.1836629  48.7501335  27.8524947
  14.5255685  49.0597677  28.4805059  -0.2520338  57.4185705  23.5491800
   0.1797708  57.5710917  22.7086377   0.0882849  56.5736914  23.8434529
  79.4732475  25.2393532  53.2403088  78.9047050  25.6955600  52.6199341
  79.9412346  24.5960879  52.7079296  65.6457615  36.7510748  29.2404866
  65.8233213  36.1085963  28.5535192  64.7129917  36.9462585  29.1505814
  56.8499804  28.3718300  12.3215854  57.6181507  28.6076212  11.8014407
  57.2106123  27.9911685  13.1223810  68.2199812  35.9707046  43.2675791
  67.6157093  36.6280699  42.9226780  68.1876945  35.2576494  42.6298141
  36.2589312  71.5931511  27.5459790  36.4362979  70.9421539  26.8670321
  35.7702279  72.2819757  27.0955110  70.3965759  32.5479555  27.3668480
  71.0800219  32.6918507  26.7123032  70.6831312  31.7700028  27.8452897
  65.0371456  29.3556190  22.5002217  64.9466991  29.5765400  23.4271765
  65.9479046  29.0757298  22.4084663  13.5266232  20.8507538  27.1680355
  14.2218888  21.1867046  26.6023707  13.9099491  20.8518410  28.0451274
  81.6215324  44.0989017  28.0105233  81.0498524  44.7634745  27.6261353
  81.1246014  43.2840872  27.9372787  56.6780233  10.5715883  61.2399340
  56.0356760  10.2603054  61.8776846  57.2092390   9.8009926  61.0393715
  69.3289614  26.8309760   1.8678510  69.0395832  26.5838909   2.7461684
  68.7853384  26.3063025   1.2801228  75.1069880  27.2009444  34.4819903
  74.2456865  26.8878293  34.7582960  75.7189131  26.5455890  34.8170877
  72.4262571  36.1493087  37.7156878  72.4274731  36.0541391  36.7632318
  71.5260935  35.9524894  37.9749107  84.6296883  27.5081706  13.5573626
  84.1312885  28.3219147  13.6324966  84.8851395  27.2999167  14.4560337
  70.1879120  38.3783293  22.1883178  70.9920216  37.8835082  22.3457670
  69.5909262  37.7448297  21.7901707  73.1746817  14.1987658  33.1236815
  72.5745392  13.4531808  33.1365514  72.8633070  14.7690213  33.8265967
   8.3645952  32.5273657  34.6466589   8.7603444  31.8020916  35.1299739
   7.5171775  32.6634717  35.0704384  64.1639328  45.6279516  31.4223266
  63.6289644  46.1459446  32.0237565  64.3934965  44.8436928  31.9207954
  64.6981049  22.1904111   7.4165761  65.2046204  22.6467514   8.0884588
  64.3665361  22.8881717   6.8514001  83.9502144  34.7573519  21.2395239
  83.7746716  35.3549099  20.5126524  83.5832310  33.9202118  20.9553504
  50.7820129  26.9052529  29.8695827  51.7098618  27.0326233  30.0673270
  50.3996801  26.6084027  30.6953740  74.0998507  52.9894924  47.9681396
  74.3274546  53.2713509  48.8541365  73.9058399  53.8019753  47.5007486
  70.8370352  36.0090613  16.1465013  71.1703539  35.1123405  16.1144781
  70.2923727  36.0902309  15.3635681  81.7214203  43.6947775  38.5953546
  82.0458221  42.7947807  38.6269212  80.8265114  43.6386871  38.9303493
  64.0690756   8.9267051  27.2883630  64.8092985   9.4643068  27.0067906
  64.1100788   8.1509137  26.7291689  75.7435369   1.3649629  14.7325921
  75.6581593   0.6548566  15.3687453  74.8447704   1.5548375  14.4635320
  79.3687105  62.9091644   9.8202604  80.3242397  62.8978443   9.7649407
  79.1818571  62.8217220  10.7549644  79.8721981  31.8822241  29.0536237
  80.0696754  31.2209082  29.7168684  80.4770660  32.5994992  29.2430472
  84.4819450  36.0585809  31.5878558  84.9686813  35.7132626  30.8394766
  85.0990391  36.6456127  32.0246840  34.4134641   0.3704883  39.2867351
  34.8254561  -0.4920254  39.3373823  35.0145006   0.8921567  38.7548971
  72.3910332  28.8242579  21.5549302  72.8750134  28.4910798  20.7992911
  73.0572319  29.2416978  22.1009660  27.1327758  47.6189423  66.9647264
  28.0361223  47.3652315  67.1540117  27.1661782  48.5708618  66.8700361
  63.4987783  50.4965591  29.3280363  62.5651360  50.6303883  29.1648364
  63.5738707  49.5662165  29.5403075  67.0610571  49.0953445  10.4465222
  67.3739004  48.3584738   9.9217570  66.1387491  48.8983631  10.6101644
   6.0126501  62.6625299   6.1407667   5.2427948  62.6834202   5.5723310
   6.3476437  61.7697334   6.0575801  17.6424122  46.9557953  14.9226046
  17.8979778  47.5812531  14.2445779  18.4651029  46.5509033  15.1973259
  39.2927194  61.7227077  21.8662095  39.4772506  61.7710876  22.8042078
  38.3394194  61.7847109  21.8061376  84.1155243  64.7017908  31.7103243
  83.7753963  64.9384308  32.5731945  83.4481716  64.1241026  31.3399935
   2.0570250  46.3796663  22.0231724   2.9010028  46.5221024  21.5946341
   1.4091533  46.5579939  21.3414884  68.3675289  66.7429161  11.8578541
  68.6535168  67.2183800  12.6378393  67.9079342  65.9760904  12.1998799
  83.6849403  48.5959768  37.4280620  84.5631313  48.6243105  37.8078008
  83.5948086  47.7014589  37.0995140  79.2141438  48.7266302  10.4263711
  79.2242289  49.3342876   9.6868539  79.1116142  49.2870998  11.1955214
  -0.0418679  59.7563267  27.6767898  -0.4000179  59.4197941  28.4981942
   0.8766379  59.4871473  27.6878858  57.3896074  44.4779444  13.9695013
  56.5150023  44.0890837  13.9786494  57.7789402  44.2114305  14.8023403
  77.9490137  67.0774364  16.0902989  77.7954769  66.4971447  15.3446984
  77.8316450  66.5175200  16.8577302  84.0751076  46.8961287  22.0806551
  84.8386383  47.0702934  21.5302682  83.9756203  47.6876450  22.6096511
  65.2217007  49.0281296   7.5756401  65.1121426  49.4773483   8.4137511
  64.5778465  49.4382095   6.9981325  64.4729471  48.3927584  26.2084055
  64.1978931  49.2227173  25.8188629  65.4091549  48.3369541  26.0170078
  80.7837105  51.2668419  31.8166351  80.9233761  50.3213358  31.7641973
  80.0255680  51.3653803  32.3926020  54.0355206  11.6743457  45.0841331
  54.7617388  11.8210948  44.4780779  54.2665529  10.8671534  45.5437994
  75.0152922  45.0680447  38.1765532  75.8993769  44.7943258  38.4208894
  74.6231413  44.2882633  37.7836180  13.0338037  40.3731871   6.2089151
  12.4922156  39.6603751   6.5477592  13.9331400  40.0666237   6.3248658
  75.9970522  45.7448339  31.2356758  76.4875174  45.8233261  30.4174399
  75.9033728  46.6454363  31.5461063  28.1334209  52.4883318  34.1175246
  27.3862863  51.9815016  33.7994957  27.7507329  53.3073092  34.4322634
  68.8218689  67.1474361  46.3496113  68.9941454  67.5424576  47.2043133
  69.0527630  67.8299046  45.7194138   9.5745128  65.5778074  30.8117604
   9.6865004  66.5273857  30.8563161   9.6277648  65.2873707  31.7222786
  81.4051437  62.4557543  40.1730394  81.1124325  63.2112122  39.6633005
  82.0617580  62.8109407  40.7721519  84.5390034  40.1654100   6.3843495
  85.1114368  40.9307671   6.4370263  85.1269531  39.4184065   6.4962846
  15.6806123  52.1901608  28.8411283  16.1858475  52.4262333  28.0631590
  16.2141776  52.4952698  29.5749164   6.7797935  42.0458889  24.0283227
   6.5191948  41.3173294  24.5918083   7.5937355  42.3685789  24.4151092
  81.3119221  42.3478746  64.8402119  82.1029949  42.6205969  64.3753815
  81.4893627  41.4456034  65.1060247  70.9739923  41.7772627  14.7117054
  70.1597023  41.7963123  14.2089093  71.0311460  40.8803606  15.0411379
  83.2196808  50.0328732  33.7245011  83.1704140  50.2144718  32.7859759
  84.1229343  49.7497177  33.8665771   9.0064269  78.2412577  36.0946989
   9.8118895  78.4827280  36.5520334   9.1458249  78.5331059  35.1937962
   8.0427450  77.8368473  18.0698943   7.2058904  77.5579500  18.4415412
   8.6870468  77.6261377  18.7456954  74.5696640  37.1937418  33.2141399
  75.0900316  36.5593696  32.7211690  75.0029469  38.0326700  33.0569983
  69.4995737  72.9710770  27.2123790  70.1608086  72.3002291  27.3825455
  69.2327213  72.8198004  26.3056612  16.0003746  67.8185272  28.7183809
  16.7273498  67.1966124  28.7493539  16.4178860  68.6681557  28.5767913
  67.6011705  57.5459290  41.5975094  67.6163816  57.7263975  40.6576014
  68.4896564  57.7435684  41.8937588  73.3698034  54.9951649  37.7924538
  74.2346430  55.3706026  37.9577613  73.0820990  54.6714020  38.6460567
  68.0539083  24.3545318  27.5850296  68.2101345  23.6492968  26.9569612
  68.9252472  24.7002745  27.7785730  80.3732586  50.9682798  29.0901256
  80.0403976  50.8793688  29.9831724  79.7458744  50.4860258  28.5515594
   4.4217944  68.7351131   9.7082984   4.7586963  68.7116718  10.6039429
   4.6275645  67.8707314   9.3523014  14.6856153  31.3660216  44.8026800
  15.5343831  31.0981822  45.1549387  14.1255343  30.5983496  44.9176645
  16.3508904  64.0443277  10.2055800  15.8153021  64.7577143  10.5526483
  15.7803035  63.2766676  10.2424026  71.4060211  46.2403250  28.7323499
  71.1753941  46.7358971  29.5181274  71.0752583  46.7718649  28.0082703
   1.9817594  69.4561481  18.8725626   1.3023129  68.7896729  18.7706125
   2.0030081  69.6346569  19.8127306  70.7382011  33.1101990  33.9914870
  70.6137991  32.8617358  34.9074697  70.5009127  34.0369987  33.9603686
  59.6027231  51.1150837   0.5171396  60.1824999  51.2595367   1.2649494
  58.9651108  51.8272400   0.5673350  71.3092184  57.7870798  37.1074700
  71.6890764  57.8739691  36.2331748  70.3869486  58.0156755  36.9917107
  84.3480778  46.8544626  25.3853774  84.5471954  46.2320042  24.6860003
  84.9060726  46.5825748  26.1140394  69.8802185  46.3232422  19.6163833
  70.7280731  45.8789825  19.6203208  69.3649912  45.8502007  18.9629292
  69.3106413  48.2567787  32.3255920  69.3396711  49.1276741  32.7217436
  68.3772135  48.0573416  32.2537088   3.7606972  38.7567973  40.8861971
   3.1173545  38.0483341  40.8656120   3.3646083  39.4552231  40.3650999
  65.9331799  48.9046001  14.3423736  66.5215158  48.9821815  15.0934207
  66.0115242  49.7439909  13.8890386  75.1256371  24.6698713  16.7074299
  74.7458458  25.5417418  16.5986538  75.9397268  24.8214388  17.1875489
  62.0971823  63.4390545  -0.2380406  62.7017832  63.4232426   0.5038745
  61.2275410  63.4136391   0.1610950  72.1632719  47.2470427  15.4771745
  72.0154333  47.7303076  16.2900901  73.0533981  46.9050026  15.5603695
  80.4877663  48.4156275  31.3008571  79.9547434  48.1922865  30.5378151
  80.2556038  47.7576065  31.9560957  57.5987482   8.6089367  68.6725903
  57.4381018   9.4057631  69.1780519  57.5998926   8.8999099  67.7606869
   0.6874805  61.6042423  30.3641534   0.7796052  61.7090464  29.4171786
   0.4780497  62.4821329  30.6830335   2.5760770  33.2899332  14.2146122
   2.3106264  33.0781770  15.1095569   2.5982597  34.2465949  14.1913795
   6.4136738  40.1823759  26.3378525   6.5753853  39.9431992  27.2504711
   7.0198369  39.6371412  25.8363366  77.8408194  74.9450064  24.7938228
  78.6597252  75.1248407  25.2556491  77.6424932  74.0325546  25.0043821
   2.7298567  33.1357050  10.0006676   2.3901850  34.0294957   9.9560046
   2.9170287  32.9048657   9.0907711   4.2726806  35.6751657  27.6699543
   5.1270056  35.3324747  27.9324889   3.6964628  35.4721904  28.4068441
   1.0096871  35.0140810  11.5586615   0.4061192  35.3215313  10.8823395
   0.5826050  34.2407918  11.9272530  85.9742546  32.0951033  36.9144177
  85.4597282  31.4355898  36.4490867  85.5152702  32.2141171  37.7459264
  82.0369720  56.3658714  14.0739965  82.2603607  57.2659492  13.8369608
  82.7509403  55.8393002  13.7145424  74.1547489  67.9312611  16.3832235
  74.4068050  67.1282482  15.9272969  74.9023819  68.5175419  16.2667930
  71.6877222  72.6530409  57.1030617  71.8215036  72.8384256  56.1735630
  71.6087580  71.7001772  57.1482992  63.2685852  40.1249123   8.2034999
  64.0863132  40.6162930   8.1253797  62.9020357  40.4018497   9.0432483
  15.1514447  61.5517855  10.1230168  14.1995668  61.6241312  10.0528336
  15.3260839  60.6132221  10.0535464   3.2729372  54.9718857  31.9731903
   2.3324709  54.8359394  32.0884013   3.5140476  55.5814362  32.6707172
  77.1859264  32.7255082  19.2062211  76.8431330  33.6188698  19.2312837
  76.9310760  32.3474789  20.0478721   6.0418689  59.4336224  37.9909420
   5.7039863  60.2762079  38.2944441   6.8409050  59.2984581  38.5003591
  68.4894800  57.5414705  36.4875984  67.5335646  57.5012398  36.4586377
  68.7061644  58.3819580  36.0840440   4.7156435  45.9463835  33.2771397
   5.1014501  46.4803553  32.5826883   3.8929996  45.6280327  32.9054642
  82.5910378  62.4498415  30.9205651  83.2839012  62.4027014  30.2618146
  81.8500328  62.8446865  30.4609561   5.8554763  53.5450745  31.3161492
   6.0565805  54.0022326  30.4995751   4.9674752  53.8268137  31.5359449
   4.3881845  45.6634569  20.1026750   4.6579272  46.5397596  19.8277867
   4.2546645  45.1860666  19.2838323  83.0276108  37.6024437  28.0611730
  83.4010887  36.7291856  27.9421687  82.1504879  37.5414014  27.6828098
   0.1400155  37.1457291   5.0206643   0.4442708  36.5548325   4.3318233
   0.2695666  38.0223441   4.6587354  62.7679777  44.9974966  19.4848156
  63.4711075  45.6444263  19.4272053  62.2433805  45.1431751  18.6975360
  11.3722861  47.2043133   9.8499870  11.3469732  47.0598030   8.9040971
  10.4528129  47.2776747  10.1057601  77.1945333  53.0046797  22.4600101
  78.0663204  53.1551170  22.0945168  77.2899914  52.2126484  22.9889750
   6.9417620  30.0599790  21.9694304   6.2890255  29.7274375  21.3533282
   7.6809174  30.3184700  21.4189172  80.1845455  55.3627539  39.6480298
  79.3664932  54.8708010  39.5773125  80.8701801  54.6979523  39.5833898
  79.6718693  59.5558310   6.0456216  80.3621387  60.2087164   6.1618507
  79.6483755  59.3975306   5.1018947  39.5444775  68.4605408  69.1270685
  39.4044876  69.0142059  69.8952436  40.3002453  68.8489437  68.6864042
  80.3396702  42.1967602  58.5563278  79.6438599  42.5824642  59.0886021
  81.1441422  42.5950623  58.8886166  66.2513256  32.7617836  20.3244448
  66.6408110  32.4318242  21.1341739  66.1104059  33.6941385  20.4890251
  40.5184507   5.2284390  28.0047035  40.8099318   6.0639012  27.6396370
  41.3021517   4.8580050  28.4106874  33.8823485  60.7051516  19.7343266
  33.5150719  61.5730333  19.5666361  34.4432926  60.5322838  18.9782262
   8.3486623  46.5273809  20.8495808   8.6147964  46.0564137  20.0599027
   9.1702127  46.7227077  21.3002849  66.0633183  69.7510338  40.3876162
  66.9044447  69.2971468  40.3353786  66.2868643  70.6788635  40.3141403
   2.7564168  66.7780304  38.4911823   1.9201425  66.7673826  38.0256033
   3.1391495  67.6287556  38.2766795  71.7298746  41.9440031  10.6744587
  71.9915771  41.2220955  11.2459445  72.5555611  42.3373938  10.3921175
  76.8778801  25.0523901  13.8116348  77.1369123  25.9281707  14.0982389
  75.9389591  25.0090671  13.9926887  19.3126452  48.5139084  39.3326926
  20.2180886  48.2898235  39.1177726  19.3760383  49.0109301  40.1482821
  68.0587387  33.6224961  28.1395149  68.3104515  34.5459223  28.1520176
  68.7083578  33.2048035  27.5740433   9.3704545  63.9035273  12.3098278
   9.9188697  64.3336487  11.6537285   8.9489859  63.1861067  11.8366396
  66.3552666  58.5422611  23.8416934  65.9804535  57.6634789  23.7826395
  67.1297264  58.5105705  23.2800531  74.0949249  75.8387709  34.8996043
  74.7698736  76.5171480  34.8776388  73.2711887  76.3173819  34.8067427
  68.3813572  75.1240921  23.3051586  68.8126993  75.6884480  23.9467812
  68.8854027  74.3105841  23.3245301   6.6748035  71.9381857  27.7218485
   7.4796057  71.4372253  27.5893044   6.5921748  72.4721384  26.9317245
  60.0561333  70.3255701  29.4888425  59.1198874  70.3548193  29.2918181
  60.3727436  71.2040281  29.2783737   3.9010748  57.1304798  34.6405935
   3.5271397  57.9586220  34.3396211   3.9137706  57.2061300  35.5947161
  74.7629213  57.8796673  27.4937606  74.8344660  58.8115358  27.7004862
  73.8227940  57.7010059  27.5154924  70.7137966  79.2619801  55.5894470
  71.4857149  79.7793818  55.8189535  70.2578449  79.1303825  56.4207268
  81.3689041  69.0334272   6.5959066  80.8316803  68.3917856   7.0605779
  81.2293053  69.8521805   7.0717067   4.8125571  30.1711917  19.8668754
   4.4645214  31.0561252  19.7573483   5.4351091  30.0678873  19.1471612
  80.6118870  41.2594748  40.3816557  81.0376453  41.8590975  40.9943676
  81.3175583  40.6907701  40.0736856  67.0490360  55.2718592  27.2583199
  66.2727165  55.7877064  27.0404696  66.7548704  54.6754885  27.9468274
   4.7366601  63.7192154   7.9998642   4.5496440  62.9734087   8.5699755
   5.2553940  63.3501387   7.2850716  69.2162609  11.2478733  24.9068666
  68.6127758  11.9772637  25.0483847  69.0069771  10.6253004  25.6031680
  10.8324933  59.3366289  38.0992579  10.5217063  58.5153913  38.4803224
  10.6866503  59.2345810  37.1587539  80.3820801  59.5864391   8.9460307
  79.4367218  59.6245241   9.0912277  80.4760933  59.1741180   8.0873209
  43.7926817   0.1391707  15.1618683  43.6479282   0.4867392  16.0419106
  42.9236221   0.1333786  14.7606993  70.1166725  57.2088003  19.1531789
  69.3288374  56.7947674  19.5054984  70.3268909  56.6975451  18.3717322
  74.8782206  55.7438564  29.8481107  74.0780210  55.2196789  29.8141742
  74.7597647  56.4061451  29.1672492  71.9900370  48.3546925  26.3114524
  71.4100695  48.8567924  25.7389498  72.2374105  48.9704180  27.0013189
  64.0447950  39.0617895  27.8386068  64.1990519  39.8087764  28.4169221
  64.4527864  39.3123245  27.0097470  17.2344780  55.1636791  15.9782016
  17.6132202  55.0265551  15.1098800  17.9600120  55.4972076  16.5060210
  22.6394200  55.7188988  37.3286581  23.0700588  56.5275717  37.6058459
  23.3475757  55.1782084  36.9788003  16.9013810  50.8488750   7.7425855
  17.1419036  50.9391642   6.8205070  16.5784061  49.9510574   7.8190595
   3.3338723  57.6740837  13.5646796   2.6623061  58.3508778  13.6494315
   4.1223302  58.1503105  13.3043408  75.8252144  38.0902219  36.0104632
  75.3460264  37.6992416  35.2798843  75.1501465  38.2951045  36.6574049
  63.4604836  32.1934772  51.2300730  62.5710392  32.3247838  51.5585136
  64.0240812  32.5574470  51.9127941  68.5716295  78.0325985  17.6650167
  69.4086456  78.4967518  17.6510036  68.6409950  77.4360800  18.4103954
  72.2003078  56.1686087  44.2891407  71.6992903  56.6503668  43.6310244
  72.1036816  55.2498674  44.0385199  74.1548347  41.1854744  58.7667084
  73.8805103  40.6782961  59.5307446  74.5321035  40.5373526  58.1718636
   0.3719348  61.7713785  22.6939797   0.2409438  61.0254669  23.2793760
   0.5798643  62.5006342  23.2780910  74.4941521  70.9606743  11.2986004
  74.0016460  71.0744572  12.1114480  74.2757607  71.7324495  10.7761991
  65.8655310  32.8460050  52.8554869  65.3077126  33.6063194  53.0197811
  66.6482878  33.2084203  52.4405384  75.4719162  61.6299820  16.2668097
  76.1604929  62.1522808  15.8553481  75.8379793  60.7468939  16.3156223
   6.4130366  34.3238378  28.3313084   7.1394026  34.9020767  28.0983615
   6.6508019  33.9747214  29.1902709   9.5459491  36.2571716  40.0973177
   9.7761333  35.3354740  40.2144480  10.0066447  36.5196896  39.3004036
  76.0937977  33.8374805   5.6973809  75.9651518  34.4729710   4.9932244
  75.2541447  33.3830905   5.7662815  15.4791939  42.1514845  41.8802452
  15.3072202  41.5379858  42.5945807  15.0511920  42.9629850  42.1532154
  85.5589008  34.0240884  15.7939672  85.9936333  34.6818256  16.3367641
  85.2114201  33.3886814  16.4198589   3.6273637  35.4400039  44.4855452
   2.8957179  35.6265879  43.8972330   3.2742530  34.8112035  45.1149511
  65.5396318  59.3340492  28.1783175  65.4928493  59.2467356  29.1303778
  65.6325817  60.2748489  28.0283618   5.1537895  42.1005249   7.0978695
   4.7337216  41.2978983   6.7887354   5.5048054  42.5075197   6.3057995
  15.5964005  40.0314665  32.7828240  16.3493407  40.3544426  32.2878504
  14.9480391  39.8091459  32.1146679  35.5678678  65.7522964  65.8071947
  35.6113291  66.2866545  66.6001654  36.4565539  65.4140902  65.6972790
  60.8256674  57.6810169  57.2389984  61.2122488  57.4214220  58.0752993
  60.4740715  58.5567713  57.3992300  79.7250175  45.8980227  27.0549917
  79.5362902  46.4433193  27.8187060  78.9210510  45.9258556  26.5362501
  68.2340765  45.0759220  17.8388345  68.8245201  44.4315147  17.4485183
  67.8717613  45.5522156  17.0917702   0.0730599  65.8256721  44.4439030
   0.6235892  66.2534189  43.7880182   0.3026271  66.2566233  45.2671957
  12.7186310  64.3987131  13.5141075  11.7968976  64.3183422  13.7594199
  13.0089271  63.4972763  13.3749497  74.9284220  63.9125538  51.4870024
  74.0086842  63.9250278  51.2221289  74.9906778  63.1816816  52.1019650
  61.7388916  34.5620108  30.0873184  61.0806608  35.0142264  29.5596218
  62.2029114  35.2635741  30.5441880  79.1627645  40.6743574  42.9541111
  80.0202370  40.8937454  43.3185816  79.2649841  40.7976246  42.0104027
   9.8726708  20.7640076  25.0554824   9.5579892  21.0271740  25.9203243
   9.1933715  20.1781416  24.7214985  83.6301327  59.3393230  41.8842125
  83.7652683  59.8557615  42.6787329  83.9813805  59.8854542  41.1809349
  37.9285526  15.5986154  65.5115843  37.0696425  15.8357799  65.1619339
  38.3369017  15.0842142  64.8152542  16.2014711  44.5998001  48.5355711
  16.1579180  45.0703478  49.3679905  17.1025562  44.7235966  48.2373238
  72.8279400  26.1468363  35.3080153  72.8822088  25.2355075  35.5957055
  71.9585657  26.2224746  34.9147034  85.5576134  38.3512878  10.4540706
  85.2278042  38.8193226  11.2211466  85.2482319  37.4529529  10.5702984
  74.9017572  15.7307589  20.6903100  75.0374317  15.3701222  19.8140883
  74.0189695  15.4496765  20.9309578  68.7985945  45.9321308  26.8865609
  69.1766977  45.1877546  27.3547244  68.3384609  46.4309549  27.5616050
  85.0905704  59.3695641   8.8743907  85.1900387  58.5292912   8.4268671
  84.9072456  59.1360474   9.7843885  75.2895784  58.0805445  15.2848828
  76.1114311  58.3623838  15.6865692  74.8034048  58.8921499  15.1393950
  82.5238705  64.9188709  36.9620466  81.9716644  65.1301575  37.7148128
  82.4897575  63.9642668  36.9004107  78.3150291  64.4790316  28.4312892
  78.4698915  65.3908348  28.1845737  77.6336527  64.5248032  29.1020060
  64.7895527  42.4331093  49.1410065  65.0315952  41.5566349  48.8419294
  65.2211332  42.5239754  49.9905443  56.7826223  17.4817944  66.7012215
  56.9935751  17.8802264  67.5456047  55.8269072  17.5092208  66.6555309
  80.1609993  56.7195129  18.8743150  80.6307125  56.4922428  18.0718517
  79.7619772  55.8974361  19.1592765  72.6887369  51.1725903  46.5874720
  73.3036327  51.7235994  47.0717478  71.9663191  51.0260201  47.1981001
   6.1413234  68.8410711  38.0418158   6.0498065  68.6029387  37.1192384
   6.8456745  68.2794619  38.3654094   9.4390136  68.4961414  21.5764642
  10.2727222  68.9635754  21.5247965   8.7970006  69.1740704  21.7873287
  57.0729017  68.7192106  35.8035707  57.3253393  68.0100298  35.2123260
  57.6105309  68.5833931  36.5837884  17.2306001  52.8399038  30.8388996
  17.5958645  53.1255198  31.6762996  17.9864073  52.5258207  30.3425717
  15.4670656  16.0649121  43.2223797  15.8241057  16.9459915  43.1107903
  16.0622787  15.5009592  42.7285051  21.9371796  60.5299807  14.5831609
  21.5548086  60.0358248  13.8580155  21.4934707  61.3776779  14.5556223
  82.1268368  79.7946262  10.8764124  82.3527145  79.3690825  10.0492942
  82.5383568  79.2490578  11.5466642  73.3968687  73.4215117  33.2508731
  72.5497389  73.3262873  32.8155136  73.3513355  74.2763758  33.6790872
  84.3686295  48.5727310  14.3550909  84.4698524  47.6221848  14.3056214
  84.1985893  48.7476397  15.2806854  45.3181314   2.4494334  23.3964181
  45.7126331   2.6611713  22.5503874  44.3835068   2.3612541  23.2095170
  78.8788891  73.6615181  31.9635868  79.4375515  73.1827545  31.3512850
  79.3216991  74.5013523  32.0853543  34.7358346  14.8552239  11.8071330
  34.3135881  14.3620431  11.1037755  34.4483757  14.4208729  12.6102138
  29.4813585   4.2046899  12.4755180  28.9366651   4.6622032  13.1160033
  28.8628721   3.8906661  11.8158996  17.1306264  64.7695208  17.7445734
  16.7688465  63.9019728  17.5637233  17.7237868  64.6324492  18.4832239
  72.8479576  47.2195148  32.7477479  72.3745346  47.9858780  32.4240351
  72.4035454  46.4747429  32.3427248  76.9761944  64.7186422  30.6815004
  77.2886276  64.2493057  31.4550257  76.5360689  65.4927635  31.0325837
   1.8765797  11.7685401   3.8214970   2.0089751  11.0032248   3.2620373
   1.5163764  12.4341774   3.2354829  44.9989367   0.1768866  27.9394031
  44.7949457   0.8951478  27.3404717  44.1542864  -0.0659327  28.3186650
  78.7513733  66.7800045  38.4930253  77.9331732  66.3385820  38.7209058
  78.6772633  67.6449299  38.8963103  84.3017578  67.9594898  33.9251947
  85.1048946  68.0350018  33.4099340  84.1112232  67.0215034  33.9356899
  24.1406822  16.7810225  34.9569654  24.3248749  16.2025142  35.6969881
  23.7911558  17.5774169  35.3567362  24.2554092  60.1561546  15.8940423
  24.7407222  59.7477007  15.1771963  23.4496403  60.4744148  15.4870033
  71.2743092  67.1903133  10.4645169  71.7957020  66.8951988   9.7180015
  70.3801060  67.2414637  10.1268566  35.0552917   8.7369633  36.8576074
  35.5300426   7.9103303  36.9443202  34.9027324   8.8280237  35.9170413
  85.6968117  47.6032543  42.7327919  84.8816490  47.6215506  43.2342005
  86.3849831  47.7019835  43.3907413  76.9606113  45.2128887  28.3807945
  76.8401623  45.6312418  27.5283241  76.7850542  44.2858362  28.2195807
  36.8864369   7.6148224  31.1017990  36.0734653   7.6673436  30.5992532
  37.4146628   6.9667405  30.6357503   4.7927716  80.9609413  15.2201831
   4.9382868  80.6334686  14.3325901   3.8905662  80.7129478  15.4220629
  63.0981350  73.1817055  54.4941378  63.8772011  73.3964014  55.0071669
  63.3243608  72.3675680  54.0444374   0.6601084  75.7982445  41.7391491
   0.5648332  75.0694132  41.1259937   1.4781635  76.2229919  41.4810610
  75.3341866  42.6073599  19.5855045  75.4652357  41.6844559  19.3680203
  74.8352337  42.9587030  18.8480532   3.7509039  75.5424023  13.1542373
   3.3829424  74.6884394  12.9271209   3.4324104  76.1302805  12.4692583
   2.8636780  77.6163054  51.1317921   3.3473423  77.6440573  50.3062439
   2.2002804  76.9393587  50.9980774  75.4589987  66.8027878  31.4929819
  75.6700754  67.5176382  32.0935392  75.5817127  67.1783161  30.6211138
  75.7154179  34.6111226  43.2751846  75.7870197  33.9673734  42.5704241
  76.5876389  34.6332908  43.6688519  71.0311460  77.7031803  40.2833223
  71.8833256  77.7951241  40.7094288  70.3961563  77.8203869  40.9899235
  10.1056182  53.9921331  32.7492976  10.2632856  53.7101603  31.8482614
  10.1184309  54.9483013  32.7067566  36.4906263  17.5142443  33.5863256
  35.9981155  18.2746768  33.2774425  37.3791909  17.8433299  33.7219143
  14.7603917  68.9365149  18.6280262  14.8056293  68.0468273  18.2778227
  14.9064183  69.5005608  17.8685820  72.7087545  21.8688560  39.9581218
  72.8569412  21.1650705  40.5897522  73.3221388  22.5564432  40.2173805
  58.1950855  10.6931567   9.3183959  58.1278801  11.5501809   8.8974148
  57.2997189  10.4874706   9.5871806  85.2147102  46.7709255  67.4441624
  85.8766270  46.7793465  68.1355572  84.3827820  46.8663025  67.9078722
  26.4949393  62.7369499  18.5979617  26.9384503  62.3662996  17.8349745
  25.5773425  62.4886799  18.4856617  78.4773588   5.1536703   9.2266661
  77.6583004   5.4646885   8.8411212  78.5051489   5.5622238  10.0918508
  73.7098694  24.4411206  10.2044547  74.2791986  23.7818503   9.8076457
  73.3023357  24.8846865   9.4605464  55.5890608  10.3817928  21.1394787
  54.8523283  10.0586486  21.6581583  55.4068613  10.0788689  20.2499437
   7.6309723  18.4680986  14.1311860   8.3641815  17.9613900  13.7820685
   6.9182980  18.3171082  13.5102761  47.6005030  66.9100189  17.8300965
  47.1602631  66.2260580  18.3346963  47.5873709  67.6765299  18.4032643
  40.8009195  12.5485158  18.7024319  40.4160357  11.7222750  18.4101605
  41.5957308  12.2905934  19.1693151  76.8491459  48.9934254  60.5292082
  76.3162374  48.2013893  60.5993223  77.3952198  48.9850569  61.3153172
  48.4862280  16.6949689  16.2241650  47.8113127  16.5515912  15.5607140
  48.8387156  17.5620461  16.0237634  37.0603251  64.2039824  14.1089189
  37.3586321  63.9833879  13.2265449  36.1170697  64.0422487  14.0902853
  66.0930109   6.5761185  32.0559096  65.2609825   6.6597760  31.5901184
  66.1760044   7.3937136  32.5467062  58.1281137   6.0208136  10.5316591
  58.7514019   5.4610384  10.0686336  58.6735010   6.5800601  11.0848558
  40.8108568  71.9824123   2.2732450  40.4621744  71.2215281   2.7376842
  40.1069260  72.6298809   2.3118658  36.4010763  80.4676914  26.0052395
  37.3250055  80.5714703  26.2328720  36.4070487  80.2497292  25.0732064
  41.9365835  60.7238293   9.4169772  42.3221350  61.5491724   9.7109032
  41.5268469  60.9361124   8.5783559  40.5258417  10.8320057   8.9109951
  40.2264118  11.7408395   8.9354146  40.1540184  10.4360688   9.6991676
  27.1036029  78.2797670  20.7421780  27.7280712  77.6079941  20.4683280
  27.5664353  79.1065788  20.6065321  74.8760843  15.0488877  45.9138012
  75.1677322  14.7333169  45.0584698  75.5975437  14.8368776  46.5060616
  62.9261637  22.1513510  43.0079269  62.0517778  21.8366456  42.7784872
  63.4929752  21.3885856  42.8932714  31.6609192  63.2528591  58.6921120
  32.3219585  63.4434414  59.3576479  30.9319639  63.8356352  58.9047861
  85.4177284  58.3758211  68.8373470  85.4820156  59.0943575  68.2082176
  86.3213921  58.0866671  68.9638567  58.2739925   3.3191550   8.4360319
  57.5718975   3.0998936   7.8234810  59.0156269   3.5512823   7.8771681
  38.6726952  15.1975489  21.7578888  38.0690527  15.1623571  21.0158563
  38.2194066  14.7276914  22.4578857  40.1122522   3.8551888   2.5463393
  39.9770737   3.4543276   3.4049827  40.5289650   4.6955085   2.7372468
  34.3819237  71.5317011  19.2775691  34.5544195  72.2918606  18.7220228
  35.2277374  71.0889816  19.3470907  45.9699917  15.2408636   9.5914859
  46.8728495  15.0620258   9.8543525  46.0073233  15.3089464   8.6374402
  54.7708845  12.3464966   3.2507840  54.1294909  12.7540040   3.8328350
  54.7477579  11.4178288   3.4815970  54.4955349  21.0129476   5.9651035
  54.6400404  21.4463258   6.8062526  53.9191818  21.6076660   5.4851508
  61.3066006  61.6514730  63.3955765  61.0583401  61.0584784  62.6863813
  60.5326796  61.6900206  63.9575291  27.5899982  19.3495572   4.0599841
  27.8353810  18.7954700   4.8009336  26.8036270  18.9371181   3.7025690
  28.1682563   6.8933254  10.2134895  27.4605489   7.5376052  10.1965821
  28.4898496   6.9143921  11.1148036  64.9280930  60.6866121  47.8394222
  65.0185347  61.6367579  47.9120398  65.7500410  60.3405142  48.1870604
  68.6273956  68.7150383  68.1525898  67.7618790  68.3438778  68.3239269
  69.2397547  68.0460358  68.4586573  50.6033230  17.7778506  13.1663692
  50.3992510  16.9176912  13.5334003  51.1440611  17.5888634  12.3994792
  43.8109446  13.6583066  17.8432429  43.3499670  14.4965315  17.8099561
  43.5814333  13.2925034  18.6974943  33.6379194  60.2031422  29.1190171
  34.3736720  60.7510710  29.3922782  33.5507321  59.5537806  29.8168445
  47.0491505  15.1451194  32.5830269  47.6447487  15.2840364  33.3193660
  47.6253557  14.9795616  31.8368340  40.5662203   5.9147781  14.5752633
  41.2504673   5.3792137  14.1737580  40.1859331   5.3516042  15.2493906
  52.5083399  74.9411297  43.0523443  53.0177212  74.5785713  43.7771273
  51.6070414  74.9512196  43.3745146  54.9643707  80.6397629  15.6998754
  55.1392412  81.1271286  16.5049374  54.4025278  79.9155045  15.9755921
  80.0095463  32.6236415   4.6838844  79.9803686  32.3827624   3.7579483
  79.4835186  31.9546795   5.1220840  47.2887802  17.1298754   7.1009070
  47.7560997  16.6661906   6.4060378  47.8925753  17.8195095   7.3767161
  79.3522787   1.1125105  38.3219004  80.2592278   0.8576071  38.4913325
  78.8313246   0.3866387  38.6653352  78.7301302  67.5245237  68.3307743
  78.9045811  66.5966177  68.4882402  79.2712545  67.9824781  68.9739609
  76.1564684  16.0926700  15.5741084  76.1139727  16.3661849  14.6578026
  75.5810976  15.3292704  15.6231189  40.0219345   6.3220239  46.8470192
  39.2964625   6.7669982  47.2850990  40.7286215   6.9675881  46.8382549
  31.2173915  51.9697857  61.8012905  31.1846828  51.7279005  62.7268505
  30.3355694  52.2862339  61.6051292  44.1486216  70.2526855  39.5970440
  43.9029455  70.3933620  40.5114222  44.7889519  69.5418644  39.6277189
   8.4939772  15.8649039  12.7940166   7.6095110  16.2009501  12.6490211
   8.3758771  15.1331770  13.3997071  71.9140244  19.9702358  24.8553467
  72.0121336  19.6903932  25.7654524  72.5669479  20.6615210  24.7456121
  74.4237423  15.6963706  24.6990657  74.6684265  14.7870958  24.5270777
  73.5954952  15.6355953  25.1750350  69.1799545   9.7575909  35.1626182
  69.0251446   9.5560157  36.0854578  69.8604584   9.1405326  34.8935628
  42.7106714  76.8353653  23.5316849  41.9774342  76.2207270  23.5602403
  43.3657598  76.4014721  22.9850364  78.7424135  13.2778394  26.2012672
  77.8170443  13.3308780  26.4402390  79.2099237  13.5424352  26.9935155
  63.9143753   7.8262246  14.5214117  63.3180380   7.5214851  15.2053332
  64.2479801   8.6613846  14.8492050  10.7898557   6.7593849   9.8013955
  11.3735926   6.1231267  10.2145052  11.3686919   7.4676532   9.5193714
  73.3545399   0.6451248   8.1937957  74.0091181  -0.0356481   8.3497131
  73.8454485   1.3618599   7.7918875  61.6264772   6.8987256  32.7260685
  61.7048550   6.7127270  31.7903900  62.0773697   7.7349919  32.8426218
  37.9588485  76.5280533  35.8178711  38.2214308  77.1596146  35.1482368
  38.1616426  75.6746006  35.4348302   6.1049193  25.7734799  31.0148191
   5.6363535  26.5891695  31.1918163   5.5556136  25.3148150  30.3791142
  56.1069298  18.4287608   4.7090352  55.3616428  18.1434786   5.2376103
  56.3479424  17.6560569   4.1980803  12.5666332  52.6936722  56.0982752
  12.5196099  53.2485151  56.8768501  13.3988273  52.2288036  56.1853600
  52.5381279  19.0095949   1.0498980  53.0856133  18.4017587   0.5528811
  52.4862814  19.7905958   0.4989168  66.8713140   9.6293426  18.4790957
  66.2400913   9.0926898  18.9584649  67.7203226   9.2332494  18.6753702
  56.3288689   2.3579460  11.9106770  57.1001530   2.9194871  11.9882834
  55.7337904   2.6730019  12.5910091  60.4572964  34.5659518  18.9525282
  59.9430752  34.6354175  19.7568822  60.8803844  33.7093925  19.0119576
  55.7161856  29.6512055   3.7769568  55.2790976  29.9860644   4.5599341
  55.9020853  28.7344480   3.9800009  82.2730160  33.8879776  45.1529980
  83.1534863  34.0321040  44.8062658  82.2379971  34.4214177  45.9470081
  62.3998880  37.7607203  41.7640114  62.0371294  37.1693110  41.1045599
  62.4599504  38.6065936  41.3200283  50.4504585  71.4272308  28.9957070
  50.9789610  71.5236473  29.7879338  50.0976181  72.3024225  28.8351893
  54.9613714   8.0291396   8.3462942  54.1534758   8.5394472   8.4022284
  55.1795864   7.8256577   9.2558050  74.2279530  14.1578770   4.7230276
  73.7942171  14.6452498   5.4234368  73.6888027  13.3756471   4.6061367
  59.6233892  20.1242208  55.3354549  59.6997452  19.4590962  54.6513367
  58.8693762  19.8470426  55.8559036  82.3970985  16.9666564  13.6138034
  82.6247311  16.1436296  13.1813216  82.0680809  17.5245619  12.9090214
  51.4082527  19.0888631  30.9415245  51.6318274  19.9691641  30.6393409
  51.4078331  19.1562986  31.8963456  18.9605772  69.4713116  51.9622087
  19.8431206  69.4349194  51.5933943  19.0451038  70.0361490  52.7303505
  49.8980951   4.7933525  21.5230799  49.0474844   5.1097316  21.8273807
  50.4046822   4.6601355  22.3242402  86.1284924  61.0783482  50.5213928
  86.3263988  61.7366648  49.8552990  85.1813221  61.1399889  50.6450748
  52.7538347   7.1885180  51.6594458  53.0174446   7.1553391  50.7398558
  51.7975187   7.1548784  51.6358280  82.2531319  11.4908874  12.5411487
  82.4106979  11.5999722  13.4789681  81.3924980  11.8837690  12.3955870
  68.6677885  29.9662161  14.9905992  67.7588511  29.7038507  15.1363039
  68.9558983  29.4311833  14.2510295  51.7205000  27.6084018  11.3002956
  52.0058155  26.6976595  11.3735878  52.4697733  28.0639839  10.9165514
  73.3510065  14.1948080   8.9253795  73.5665083  14.4138658   9.8319143
  73.5599089  13.2639122   8.8477659   2.4558246  22.1281511  -0.1563065
   3.3463800  22.4256069   0.0298698   2.3639429  21.3183243   0.3456599
  37.7741885  67.9921913  67.1368313  38.2125211  68.0022907  67.9877090
  37.2097802  68.7651920  67.1489716  81.5362072  69.7383547  60.6958342
  80.6060123  69.5257902  60.7719326  81.6397285  70.0408840  59.7936201
  63.5658455   6.1901885  12.4551809  62.7011633   5.8241075  12.2693193
  63.3905840   6.9453532  13.0166435  84.1007805  61.9833708  69.2513990
  84.5351887  62.3750544  70.0090981  84.7075176  61.3068581  68.9506817
  85.1823711  18.6826432  13.5200214  84.3549347  18.2082343  13.4392416
  85.5745411  18.3448029  14.3251908  47.5890064  76.1622953  14.4073081
  47.6145411  75.2559471  14.7140825  47.3297501  76.0968494  13.4882128
  77.6942015  43.1845379  55.6422424  77.0061016  42.9952192  56.2801313
  78.0784559  44.0084410  55.9418535  14.9803662  56.2709236  64.5501566
  14.5511472  56.2887812  65.4055405  14.8848581  57.1626520  64.2155933
  83.5567188  20.9297585   6.8937045  82.7012634  20.8280063   7.3109275
  84.0165234  20.1129580   7.0877606  58.2394028  23.4888434   9.1182232
  58.7032223  23.3558750   8.2915300  58.9334345  23.6283898   9.7624898
  76.8577671   5.8301783   7.0715505  76.7432451   5.5931044   6.1512727
  77.5487614   6.4925271   7.0640522  60.1718521   6.4191639   5.3942657
  59.2967129   6.7165339   5.6431383  60.1737404   5.4837656   5.5973858
  41.2140465  70.1416111  16.6087532  41.2074089  70.9569073  16.1072719
  42.0700312  69.7545099  16.4252484  23.8735700  69.1227531  66.3250256
  24.0917492  68.2541990  66.6630316  23.6596537  69.6361446  67.1040630
  66.3958979   1.3586886  19.8417938  65.9608126   0.5493828  19.5735490
  67.3288441   1.1789988  19.7253764  42.1671820  67.0578957  10.2338517
  43.0877638  66.8371582  10.0922966  41.6876078  66.2812042   9.9457753
  37.6061940  63.6475182  30.1042604  38.5067606  63.9651299  30.0384378
  37.3579574  63.8178539  31.0128832  79.4257307  61.9521570  66.8837261
  79.0672350  62.8326702  66.9951248  78.7341213  61.4671564  66.4335203
  68.0045795   3.9787215  28.3811593  67.0917749   3.7372300  28.2239819
  68.0364561   4.2021409  29.3113756  31.1619544  16.4404750  50.7029200
  30.9371758  15.8626938  51.4322186  30.4066133  16.3915586  50.1170015
  51.7521048   8.5966319  24.4521737  50.9486532   9.0278018  24.1609907
  51.9698668   9.0285248  25.2781749  64.9290133  34.4395137  24.4133735
  64.8308325  34.6576405  23.4865451  64.0549707  34.5650506  24.7828650
  75.6093407  15.1228881   2.3890416  75.1020479  15.0788355   3.1995624
  74.9531603  15.2382696   1.7017643  77.6714277   3.1585455  38.9033699
  77.3652267   3.6497596  38.1410193  78.2687235   2.5035644  38.5421610
  79.6354485  33.1649041  41.1205864  79.6668434  32.9066706  40.1994133
  79.2527390  32.4101901  41.5679932  76.7845297  20.9245348  31.2579274
  76.5849400  21.4682126  30.4958177  77.4556732  21.4147973  31.7327309
  11.0430551  75.7982969  26.2968850  11.7048001  75.2069235  26.6554976
  10.2317548  75.5452013  26.7372990  52.3505640  35.4252863  14.1836834
  52.3880720  34.5549130  14.5802641  52.8768635  35.9756303  14.7636485
  53.8947296  19.3250668  25.6712914  53.3823013  18.7380397  26.2272143
  53.3885193  19.3906522  24.8615479  58.3657598  37.7784395  43.4160471
  57.4593306  37.4819565  43.4979773  58.4963369  38.3595657  44.1653633
  77.1476936  13.2198703   9.9076915  78.0819559  13.3611596   9.7546273
  76.8876648  13.9395797  10.4826987  31.3923860  71.9637060  15.3892159
  31.6581106  71.2146091  14.8558521  31.5775371  71.6947746  16.2890077
  65.0451279  24.5799923  31.4210320  65.9947252  24.6429920  31.3184094
  64.7791195  25.4474044  31.7261004  52.0532131   0.3887759  17.6395845
  51.5399790   0.5297755  18.4351611  51.5377569  -0.2361138  17.1296358
   3.2868895  63.7743187  58.9509964   2.8945556  62.9022932  58.9077044
   2.5934643  64.3316698  59.3041992  58.2609701  16.1943257  20.7053137
  58.6066723  15.5472350  21.3201284  58.0631542  16.9580102  21.2474251
  65.3838634   9.6836591  38.1214261  65.4113626   9.7562248  39.0754747
  64.4526386   9.7285569  37.9045486  34.9364662  73.4474325  17.6917231
  35.1047397  73.1158543  16.8096948  34.1568470  73.9946890  17.5971842
  49.7331285  70.4695415  19.2673552  48.8037491  70.5077744  19.0414691
  49.7697544  69.8989439  20.0350213  49.1106033  15.9845304   1.2115072
  48.2886839  15.7555115   0.7776473  49.7553205  15.3857601   0.8346205
  83.2308197  27.8243542  17.1643221  83.5420990  28.6594605  16.8151248
  82.2765541  27.8935695  17.1357560  70.9689665   7.3956847  15.1082015
  70.1055288   7.3647738  14.6961904  71.5590858   7.0174634  14.4563270
  76.5356445  21.6879559  34.1494823  76.4468288  21.8903685  35.0808096
  77.0531082  20.8829784  34.1276193  84.1729641   7.8284615  58.2132864
  84.7192860   7.6378167  58.9757919  83.3493996   8.1473702  58.5824251
  16.8996847  72.9637718  22.5892043  16.9928217  73.2270432  23.5047626
  16.3515651  73.6444998  22.1988106  47.7746201  21.6842866  15.8654118
  47.4815798  20.9757304  15.2924287  47.4919605  21.4174056  16.7401171
  81.2849998  20.1923251   8.0634564  80.7623005  20.4233265   7.2955716
  80.6936932  20.3248978   8.8044089  68.8502932  13.7589157  31.4628553
  68.5921240  13.1425512  32.1481848  69.7027159  13.4419060  31.1643338
  55.1375437  10.4890156  38.4436131  55.7649231  10.5794597  37.7263641
  55.4561806  11.0893190  39.1176605  69.0465879  52.3785162  57.3598814
  68.7549734  51.8179941  58.0789185  68.4277534  52.2008562  56.6515636
  37.6107264  36.0785842  69.8289680  38.2089400  36.0470343  70.5755424
  37.9815197  35.4609466  69.1986752  82.7711964  39.4002652  69.6631765
  83.3859348  39.1798806  68.9633465  82.3768330  40.2266026  69.3841267
  12.8920484  40.3849316  67.0048809  12.3224986  39.6156406  67.0111084
  12.2958159  41.1252832  67.1172237  30.9037948  75.4701614  44.4327974
  31.5119100  75.1862001  45.1152849  31.1535597  76.3761997  44.2512989
  73.8883257  45.3763771  55.9234762  72.9685736  45.4139185  56.1859226
  73.8649273  45.3855276  54.9666071  72.6394176  44.4008780  66.3280487
  71.8388557  43.8774300  66.2914848  73.3454800  43.7682486  66.1957741
  78.4968676   0.1604239   1.3362597  78.4925999   0.2308146   2.2908586
  79.2595782  -0.3834757   1.1396088  62.8949261  13.8493586  26.2228036
  62.0265150  14.2286432  26.3578510  62.7487469  12.9035699  26.2414479
  42.3327923  80.1808071  26.1247826  42.0217848  79.9082613  26.9880438
  42.8202486  79.4253445  25.7963085  73.5831881   7.2686553  16.9647431
  73.9208794   7.8081900  17.6796556  72.8680325   7.7846068  16.5924835
   8.5942519  26.5953088  13.3881271   8.4542692  26.1038876  14.1975355
   7.7308512  26.6294575  12.9762959  65.2905130   4.1558087  25.2269959
  65.0090837   3.3630383  24.7703290  66.1111021   4.4002062  24.7990513
  73.5827160  46.6795635  43.7280798  73.7297344  47.4063635  44.3333769
  73.6422777  45.8964109  44.2752123  63.9296150  16.3617790  10.2375269
  64.6820593  16.6863608  10.7322085  63.7396574  17.0565760   9.6071255
  69.6883917  17.0038259  14.2843556  68.9554453  16.6985059  13.7497509
  69.2998648  17.1911979  15.1388562  58.3103085   8.4717047  48.7089443
  58.7413931   9.3117750  48.8660383  57.5405025   8.6919165  48.1844091
   5.6426919  38.3197427  32.9421711   6.0134995  37.4799871  32.6709819
   5.0731832  38.1029010  33.6803246  75.6098604  32.8879142  27.8294206
  76.2060690  33.6245894  27.6949883  74.8763990  33.2597160  28.3193469
  84.7140884  12.0181000  35.9041071  84.0764809  11.9613290  35.1924443
  84.1862965  11.9834864  36.7018914  49.1283751  81.3212299  44.2941999
  49.0906906  81.0996532  43.3637619  48.5749006  80.6659603  44.7190666
  66.1154699  31.5876389  40.8721066  65.2570391  32.0077395  40.8187723
  66.0722971  31.0544586  41.6658831  -0.2865378  13.8785732  13.8547933
   0.4423937  13.5916424  13.3047390   0.0485453  13.8143992  14.7491252
  76.8739319  30.1446319  24.8529911  77.2363234  30.4803133  24.0331006
  77.6215363  30.1124692  25.4498887   2.8923169  26.7711544  62.8746176
   3.8373241  26.6507697  62.9678965   2.7352956  26.7127252  61.9321966
  42.1291161  25.4317474   6.7068738  42.9643583  24.9695706   6.7775685
  41.9099998  25.6696105   7.6077843  78.0504751  10.8177340  21.8831062
  77.5082397  10.5167842  21.1539698  77.9050207  10.1702750  22.5729394
  74.5757151  13.1796789  24.1128421  73.7711382  12.8459275  23.7159824
  75.1922321  12.4497950  24.0544462  66.5991211  16.6152370  20.8792782
  66.2643242  15.7470775  21.1038685  65.8684587  17.0464325  20.4360723
  80.5077648   0.4334696  45.2385092  79.5552731   0.3601941  45.2987146
  80.7378578  -0.0702292  44.4577551  73.0890465  27.4678326  25.0003695
  73.9704800  27.8137755  24.8602462  72.9203892  26.9233608  24.2313862
  43.2352066  15.5537033   2.2788501  42.8518677  15.8368289   1.4487159
  43.2350445  16.3408089   2.8235486   0.7628707  36.8467593  28.9823294
   0.1069622  36.1626029  29.1162848   0.4936060  37.2815871  28.1732225
  62.1510839  14.7201955  64.7793245  61.2235832  14.6497905  65.0051928
  62.4806356  13.8234341  64.8380375  70.3450155   0.3044378  30.9336209
  69.4575644  -0.0075417  31.1106205  70.2807808   1.2574375  30.9960461
  49.2720699  14.8931956  30.9255290  49.3210316  15.7307196  31.3863850
  48.5918903  15.0228834  30.2646422  64.3775988  13.0678892  23.4110427
  63.4743643  13.1004715  23.7262249  64.3404055  13.4561741  22.5369239
  65.1716423   8.0191135  10.8699346  65.2488661   7.8050452   9.9401808
  64.7365808   7.2586441  11.2554741  65.0837421  29.0343285  11.2359381
  64.9866819  28.1370735  10.9169662  65.2495241  29.5519996  10.4480517
  81.0476780  70.4971600  41.5867138  80.8291149  69.6580172  41.9920588
  80.7049561  71.1529493  42.1939373  55.0302076   7.5755811  36.0443664
  54.7864389   6.6729379  35.8393192  55.6406498   7.8225231  35.3496623
  80.3109074  21.8359685  45.0040627  79.5792484  21.2200642  44.9645615
  81.0287952  21.3309002  45.3858709  58.4047556   7.2018701  35.1675677
  58.2617235   8.1463593  35.2285099  57.9811096   6.9478846  34.3476605
  75.6833982  30.2905202   7.3150027  76.2253141  29.5044899   7.3836571
  75.3545094  30.2769399   6.4161807  36.8321586  74.3390512  29.8355794
  37.2978425  73.5079479  29.7426486  35.9083295  74.0923691  29.8793793
  80.6647396  25.4407763  47.3484516  81.4576244  25.0033402  47.0382595
  80.7340145  25.4137230  48.3027601  73.7057066  11.8312299  39.9243212
  73.9492798  11.8626106  38.9991617  74.0402222  12.6510251  40.2880049
  71.1814451  47.1340227  22.1857834  70.5636835  47.0130014  22.9068613
  70.6944418  46.8677759  21.4059305  74.9577808  29.7461629  29.1880345
  74.3931580  30.5156851  29.1154695  74.6039677  29.1283011  28.5482740
  68.2389927  11.7613864  37.2164750  69.1946840  11.7670548  37.2698689
  67.9953575  10.8503032  37.3801947   8.8710600  13.9457321  19.7128689
   7.9619110  13.6858559  19.8616743   8.9568377  14.7858644  20.1634812
  73.9809036   6.3354933   5.4942787  73.1515646   6.8080437   5.5658555
  74.6048927   6.9922674   5.1852185  83.5216808  21.6304636  35.0323534
  83.1290627  20.8772588  35.4736781  83.4076595  21.4478040  34.0996885
  58.2664585  32.4201369  20.3596187  59.1392326  32.0361233  20.2758074
  58.4080172  33.2329679  20.8449030  71.8940115   9.6627003  16.2019312
  71.7905951   8.8093019  15.7809222  71.0008240   9.9945211  16.2932718
  64.0368414  12.6641917  29.3589163  64.4564867  13.5105884  29.2048359
  63.4746599  12.8105485  30.1196837  10.7254612   4.3926120  19.5568168
  10.4543054   4.2202887  20.4584885  10.3632224   3.6629766  19.0541768
   2.2739148  38.4909797  21.2206411   2.6808590  37.8815341  20.6048465
   1.3893594  38.6216998  20.8790183  66.6018391  46.1401987  12.9491162
  66.4692163  46.9659185  13.4147692  66.0488272  46.2124395  12.1711731
  86.2833309  23.6662316   6.5625399  85.5861282  23.6991763   7.2175723
  85.9209442  23.1349659   5.8535504  81.6841698  38.9981580   6.8388182
  80.7942200  38.8454533   6.5211421  82.2418118  38.8296509   6.0793000
  14.4067502  12.3451042  16.8395281  15.1303518  11.9276822  16.3722050
  13.7157059  12.4315774  16.1828613  65.5604982  21.4457345  46.5370226
  66.3153505  21.4434147  45.9484386  65.0089455  22.1593165  46.2163591
  58.8664293  31.5348268  32.3791766  58.9377260  32.4802375  32.5108862
  58.0547047  31.2915301  32.8243041  70.1798391  30.3409028  22.6334620
  70.6162739  30.4697514  23.4755754  70.3853846  29.4375086  22.3929167
  66.9901800  13.1309462  24.9113107  66.6008186  13.9910197  25.0691223
  66.7535114  12.9230976  24.0074205  76.3135433  39.2452407  32.4350524
  76.5198231  39.4503832  31.5231347  77.1231937  38.8745999  32.7862263
  14.8962986  44.4094324  28.9801908  14.2886329  44.9317408  28.4565806
  14.6710801  44.6174908  29.8869538  74.2022610  11.0420597  11.2617588
  73.9981031  10.2966130  11.8264377  73.8057423  11.7929065  11.7036116
  72.4427032  36.7463684  22.5647473  72.2021008  35.8852005  22.2230911
  73.3384514  36.8844748  22.2568607  75.2185440  22.8351569  19.0560472
  75.0652790  23.4407544  18.3307934  74.4232798  22.8899074  19.5859361
   4.8617738  77.3705196  53.1355095   4.4567597  76.5761709  53.4836578
   4.2605495  77.6660299  52.4518156   5.4009551  27.0488977  21.2118554
   4.6194762  27.5997543  21.1662364   5.5129540  26.7177963  20.3207564
  11.7571783  64.6961069  66.0880899  11.9983983  65.6153631  66.2022018
  12.4777293  64.3204260  65.5822229  57.3059988   9.0406799   3.2529506
  56.9031048   8.5860747   3.9927077  58.2471514   8.9285898   3.3867371
  60.0647783   2.6215175  67.7376461  59.8537445   2.0334040  67.0125103
  59.2533684   2.6806688  68.2419777  70.5189228   7.2343987  11.2903523
  70.0540495   8.0507886  11.4737403  71.2795401   7.2562438  11.8710589
  52.2913218  32.8155971  12.2138858  51.9284630  33.0803370  11.3686180
  51.5613031  32.9050398  12.8265107  67.4955559  38.0069113  15.8504343
  68.0920124  38.4659624  15.2590454  66.6223478  38.2098675  15.5149484
  71.0612822  16.9933426  41.6035128  71.2274694  16.2430441  42.1741867
  70.7287216  16.6084933  40.7926321  67.7813148  55.8134365  19.0621865
  66.9058037  55.5643988  19.3583190  67.6371002  56.5779543  18.5045636
  75.2922392   9.9087292   0.6202221  75.6785727  10.7721055   0.4733855
  75.0556993   9.9067777   1.5477325  74.1227198  22.7592158  25.8429360
  74.6470690  22.5646043  25.0661349  74.1768503  21.9644928  26.3737059
  41.0899115  10.4457581  24.2784309  40.7104540   9.5799923  24.4290733
  41.9505835  10.2673900  23.8994074  83.2279968  43.1574678  19.1788590
  83.9905834  42.7485752  19.5881271  82.6773262  42.4221087  18.9100754
  77.5075722  61.7691088  21.4682412  78.3730984  61.3890505  21.6187501
  77.1998692  62.0168591  22.3401189  17.5433910  54.9436426  66.5309095
  16.9489479  54.2122316  66.6979647  18.3730280  54.6725845  66.9239283
  79.7287083  22.8473330  39.8192501  78.8230515  23.1105208  39.6556950
  80.0735283  22.6253343  38.9543557   4.1643181  32.8459239  19.7344935
   5.0544339  33.1414151  19.5431554   3.9135027  33.3336020  20.5190277
   2.8026161   8.9484048   5.6769562   3.5270315   8.9497852   5.0512952
   2.5831494   8.0232537   5.7872373   3.3158004  30.2927637  16.1908603
   4.1133314  29.8335886  16.4541745   3.2148167  30.0840902  15.2621579
  82.4616241  31.4381146   1.0637249  82.6276398  32.3688865   0.9142631
  83.3010483  31.0904551   1.3649508   4.7492698  46.2397909   1.5015729
   5.1853418  46.7252254   0.8012690   4.3480697  46.9158030   2.0477200
  82.5590134  18.0970681  34.7621703  83.3230209  17.5623333  34.5463467
  82.6338387  18.8626420  34.1924953  74.0285444  35.3565788  14.8690057
  74.9839354  35.3134108  14.9089742  73.7874985  35.9729242  15.5605602
  73.7930870  43.9646912  23.9467597  73.4727573  44.5018721  24.6713686
  73.0397797  43.8763428  23.3628488  11.3126433  16.3076842  37.5247884
  11.7732191  17.0179176  37.0779467  10.9637082  15.7658803  36.8170285
   7.0800203  56.6123772  65.8629656   7.0690107  57.5610161  65.7357073
   6.7912763  56.2547207  65.0233603  67.8191519   0.3838043  55.9545517
  68.4204817   0.1433027  55.2497196  68.0531073   1.2862650  56.1714888
  55.9054422   7.6311314  10.8585513  56.3035488   8.4993190  10.7953584
  56.6473866   7.0336604  10.9522176  85.2683544  35.5435038   7.2159821
  84.4258213  35.1751709   6.9501042  85.5894470  35.9949327   6.4353764
  10.9579027  35.8953547  48.4999084  11.0165811  35.9300947  47.5451422
  11.8665683  35.8291554  48.7934685  20.8479977  52.7940512  53.6664152
  21.4931560  52.4604940  53.0429220  21.3391304  52.9112625  54.4796085
   6.8356192  46.6084623  36.2595272   7.7812606  46.7280006  36.3473010
   6.4562601  47.2526360  36.8573213   2.3017603  36.2588096  23.5111213
   1.3558662  36.2690306  23.3647943   2.6509300  36.8711448  22.8635430
  69.3918180  21.3066602   5.2633649  69.9397421  20.5349541   5.1202565
  68.5213280  20.9521079   5.4443806  69.6067810  43.5121393  40.4345942
  69.0735579  43.4223413  41.2244320  69.4864082  42.6845264  39.9689746
  37.6280642  71.9737053   9.1788775  38.0700970  71.1793232   8.8792104
  37.8883886  72.0612574  10.0958276  73.6130142  13.8727987  41.6218805
  73.5550976  14.8066664  41.4199686  72.7966976  13.6760211  42.0813704
  59.0202236  22.7878046  25.5382562  59.6038198  22.3378730  26.1491632
  59.3948269  23.6642885  25.4506445  84.0998077  59.1644716  19.4606030
  84.6385765  59.5787382  18.7865484  84.2365456  59.7022676  20.2405429
  42.3943996   2.7125525  67.8842688  42.1638155   2.2790998  67.0625734
  41.5536642   2.9642612  68.2664251   8.1275779  43.1972122   5.5668157
   8.6190426  43.8417482   5.0576359   7.2366273  43.2472849   5.2205032
  84.7819424  39.1383910  13.5620689  84.2724609  38.3282495  13.5439217
  85.3348827  39.0562415  14.3390739  79.6442127  46.4623356  33.1328750
  80.3997326  46.1185503  33.6095691  78.8981581  46.2832451  33.7052035
  64.6147776  30.0654888   5.2008456  65.1299524  29.6307921   5.8804506
  64.0672922  30.6893682   5.6775749  83.7985516  42.6168442  44.4627762
  84.5023918  42.8388405  45.0723410  84.2070961  42.0260334  43.8301086
   0.9091106  18.5378397  41.1376190   0.4626742  18.0358410  40.4557657
   0.3285760  19.2796206  41.3078308  75.0660133  61.8296957   1.2848161
  74.9797058  62.6238060   0.7573932  74.2668104  61.3346004   1.1048418
  82.7875710  34.3946218  42.1239328  82.9552650  34.1823387  41.2057590
  81.8370056  34.3289137  42.2152042  59.4376087  22.3484397  13.2704842
  59.2921972  22.4166989  14.2141080  58.8282442  21.6686296  12.9827976
  82.1287727  40.1429701  15.7645500  81.8308735  39.3488407  15.3208768
  83.0840397  40.0893974  15.7357550  73.9404631  43.9224768  33.7423825
  73.9783287  43.7416029  34.6815753  74.3946695  43.1834793  33.3376455
  39.2981958   2.6020253  50.3035355  39.8869753   3.1338024  50.8390570
  39.3280244   3.0095673  49.4379425  71.4091778  48.5836697   6.9148016
  71.9319725  49.2630816   6.4889777  70.7947111  48.2958889   6.2396407
  10.0978971  29.1889882   1.0651528   9.2125714  29.5515323   1.0966571
  10.0009382  28.2920527   1.3850534  76.6001081  30.4559612  11.6678810
  76.0056543  31.0586238  12.1147096  77.4560356  30.8813095  11.7198145
  60.8738804  49.1988707  30.1979017  61.0225010  48.7246418  29.3798256
  60.5588293  50.0595903  29.9219584  76.9254160  20.7025218   6.7862695
  76.6754818  20.7060242   7.7102578  76.6948700  19.8257458   6.4791119
  81.9675827  37.1169329  20.2954412  81.2902737  37.7409244  20.0344515
  82.7536488  37.6508784  20.4104733  24.0482974  58.3476782  63.9935589
  24.2719340  57.4171305  64.0107250  23.6798382  58.4894180  63.1215620
  68.4997988  15.5860555   3.9053923  69.2200661  15.1773620   3.4253812
  67.9854107  14.8503292   4.2375746  60.5530930  40.1377010  35.8956099
  60.5750799  40.2295351  36.8481398  60.2457952  40.9875488  35.5800819
  76.3466024  33.0025315  15.4476929  77.2457790  33.2957006  15.3001618
  76.0152006  33.5821223  16.1336088  75.7254505  36.0017896  12.3453164
  75.2984858  36.8477082  12.4807882  75.3071785  35.6451511  11.5616775
  57.1228313   3.4399861  68.4579182  56.2043047   3.1730789  68.4217930
  57.0919228   4.3861279  68.5996628  74.3846369   8.9311385  31.5962863
  73.5242414   9.3328255  31.7171121  74.9803448   9.4844127  32.1015096
  11.2738383  40.0963163  21.9795442  11.8140721  39.7135258  21.2882757
  11.7625999  39.9295950  22.7854896  42.7382565  74.5193005  46.6207695
  42.6021194  75.3272152  47.1157169  43.1962156  74.7984123  45.8279276
  79.4085836   4.3880889  15.9062135  78.4896564   4.1330934  15.9885812
  79.7424030   3.8518623  15.1870084  82.6530838  58.8846350  62.0331144
  81.9977951  58.3610630  61.5719271  83.4724331  58.7022734  61.5730524
  85.0079632  25.2101254  12.1453094  85.0026226  24.3985438  12.6527905
  84.8520756  25.8981681  12.7922499  75.9036112  10.8859968  25.0195146
  76.3602352  10.4101944  24.3257308  75.7601690  10.2322996  25.7038665
  81.4740849  29.2075062  21.4497709  82.2209167  28.9543605  21.9923568
  81.0284519  29.8859096  21.9571280  59.3757582  39.1130233  18.7488663
  60.0730371  38.4895849  18.5454977  58.6495829  38.8535595  18.1817842
  84.0620232  39.1563034  25.2189088  84.3381500  38.5092998  24.5697737
  83.7856007  39.9123192  24.7009706  20.2692723  52.5794268  63.7351274
  21.0379648  53.0058289  63.3562803  20.6004739  52.1411419  64.5189905
  77.0145226  24.6383929  54.5821095  77.1447897  23.6901259  54.5893097
  77.8800249  24.9975729  54.3868399  46.2898397  73.7289333  40.9351778
  46.5862370  73.7161016  40.0251150  45.4006243  73.3761454  40.9024620
  10.1463079  21.2299609  19.7974861   9.5455068  21.4094925  19.0742719
   9.6160847  21.3513899  20.5851102  61.0349703   9.2306715   5.9279191
  60.3568554   8.9920574   6.5599412  61.7566013   8.6294901   6.1124700
  12.5245941  19.4069159  17.8409946  13.2640100  18.8047183  17.9237878
  12.4171722  19.7762311  18.7175214  84.6560287  16.9376183  27.7777314
  85.5259418  17.0356369  28.1648636  84.0958977  17.5132513  28.2984352
  23.1192684  75.7336569  65.9955168  22.7429461  75.4614782  66.8324947
  23.6003375  74.9653625  65.6880569  58.9704800  14.2512536  22.6593852
  58.2621098  13.6641407  22.3952889  58.6337852  14.6987951  23.4356427
   5.9174830  19.6346855  11.8068814   6.0731906  20.5682635  11.9497740
   5.2935237  19.3886542  12.4897981  62.0988607  32.5319624  18.3800995
  61.4553165  31.8686104  18.6291826  62.9457808  32.1080112  18.5187650
  67.9993629  30.4860449  50.9408569  68.7201977  29.8736787  51.0879517
  67.6580381  30.6689191  51.8162394  56.5584040  55.0641584  29.6252608
  55.6862211  55.3051853  29.3131185  56.5085030  55.1636171  30.5759716
  10.2888429  47.2559118  17.3914337  11.0055339  47.8846312  17.4768627
  10.2422476  47.0718575  16.4532518  70.7932901  27.5712156  26.2171960
  70.7065344  26.6209722  26.2929797  71.5316391  27.6975417  25.6212831
  12.9158127  18.1798339  26.3289857  13.0906737  19.0651703  26.6481018
  13.4962058  18.0781496  25.5746412  65.5815840  23.6259580  28.2272410
  65.5710459  22.9400730  28.8948345  66.4276457  24.0587282  28.3418131
  80.9496212  38.2938838  26.2672138  81.4278889  39.0996122  26.4629078
  80.0816154  38.4325457  26.6461205  54.8791504  16.8900931  27.6146436
  54.7711134  16.0183334  27.2343874  54.1279411  16.9912040  28.1991863
  26.0991883  70.1239824  49.7384024  26.9874501  69.7693777  49.6999216
  25.8350039  70.0096750  50.6512976  80.6907558  40.0159073  45.7166529
  81.3801765  39.4570470  46.0752678  79.8881054  39.5059037  45.8256435
   0.5199640  63.5166121  69.9153042   0.0420387  63.9134264  69.1870451
   1.3459897  63.2252550  69.5292664  60.6093073   5.0707769  63.7585306
  61.3941336   5.5622810  64.0008259  60.0084019   5.2023101  64.4919062
  18.4139884  17.2497857  28.6235452  18.9896035  17.7757072  29.1787982
  18.3852911  16.3938653  29.0511084  68.7096548  36.5354991  10.3883815
  68.3241701  35.7770801  10.8270526  68.7313700  36.2915325   9.4630486
  50.5398989  14.5802736   3.5588923  49.8904896  14.0017545   3.1591219
  51.3176250  14.4832528   3.0093870  73.7497854  31.7826295   5.7286298
  73.0172348  31.2315536   6.0041511  74.0187883  31.4192462   4.8849350
  84.9177361  43.7173080  36.7030430  84.8221588  44.4407701  37.3224759
  84.2022419  43.1197691  36.9204140  60.2959156  28.6304665   3.6310956
  60.2119732  29.2180324   4.3820626  59.6194553  28.9237952   3.0206922
  79.0529633  44.9028778  16.7919528  78.7930202  44.0740061  17.1939898
  79.8501253  45.1554108  17.2577703  68.3046246  28.2211375  24.7349477
  67.8548717  27.5881743  25.2946901  69.1119671  27.7783895  24.4734001
  84.7608852  35.7989764   9.9615830  84.9033260  35.3600073   9.1229856
  83.9338970  35.4394984  10.2826655  43.3615398  23.1822896  12.0192730
  42.8049946  23.2313991  12.7964973  44.1891861  22.8236556  12.3396111
  64.1738892  62.1928215  31.3467431  65.0339937  62.0794630  31.7512155
  64.2616034  62.9839802  30.8151364  70.3092813  50.5209637  21.0916376
  70.7620096  51.0680485  21.7334819  70.8015251  50.6463814  20.2803421
  59.7271204   3.4670141  10.9677541  59.3989944   3.2194653  10.1032984
  59.2101383   2.9426858  11.5793455  10.3301930  49.2279577  35.5488515
  10.9506726  49.9561930  35.5186749   9.8511004  49.2870903  34.7222900
  52.5070047  45.6907177  24.5052814  52.7080393  45.1638174  23.7318540
  51.5607214  45.8282328  24.4620585  73.2027388  13.7359190  14.9518180
  72.4480152  13.7218618  15.5403960  73.2454538  14.6394324  14.6386528
  77.9460192  18.1860483  19.9700713  77.5915670  18.1897235  20.8592176
  77.1942472  17.9831696  19.4133747   7.8044820  49.5734453  28.0615544
   7.0495522  49.0168715  27.8704095   8.3639157  49.4918203  27.2891545
   7.4828315  57.5086260  11.1583126   7.6210260  58.0052662  11.9648373
   8.2413548  56.9275093  11.1019254  68.4540796  41.7375755  38.2296562
  68.6243820  41.9960594  37.3238897  68.0741167  42.5175953  38.6339259
  56.7345905  21.3117456  13.6012423  57.2428465  20.7920527  14.2239964
  56.2967300  20.6635618  13.0495453   2.1178846  44.2433596  34.2669487
   2.5909057  44.1528273  33.4397316   2.6151150  44.8984241  34.7567320
  68.2314491  22.1939731  13.5290670  68.8246870  22.2153783  14.2799616
  68.4126234  21.3554239  13.1045187  15.4370594  61.4236212   2.3540355
  15.1311207  61.3339233   3.2565805  16.3913178  61.4457369   2.4256863
  74.9747658  46.3607407  33.9941168  75.2000570  45.4515982  33.7967825
  74.1146421  46.4867401  33.5934401  22.0639849  67.9408598  59.5582008
  22.9046130  68.2028151  59.1827583  21.6562819  68.7632084  59.8297644
  70.7440329   1.1474968  68.9173603  71.2463760   0.6852967  68.2463503
  70.6809425   2.0458499  68.5929966  60.6182241  61.8785095   8.9522439
  61.3258123  62.4984455   8.7755007  59.9060726  62.4190235   9.2941749
   7.4459118  39.3932486   7.8672051   8.3534652  39.5563078   7.6103210
   7.2725540  40.0358629   8.5551190  67.6787329  52.5087738  21.7118907
  68.3775759  52.6293135  21.0689878  68.0486012  51.9067764  22.3576713
  70.5920076  33.8835979  30.1219177  70.7182932  33.5442543  29.2358446
  70.5017805  34.8294091  30.0055766  22.6271987  48.2586479  23.2723904
  22.1684527  47.5645924  23.7457561  22.8430247  47.8685904  22.4253297
  67.8630018  31.6762853  22.4897909  68.0093861  31.9977117  23.3794475
  68.6525869  31.1763453  22.2827983  73.8882303  49.9215269  27.7752614
  74.4375086  50.6954908  27.6507735  74.4131422  49.1977882  27.4333525
  60.2379560   8.4323508  65.2391815  61.0534382   8.8322467  65.5413485
  60.4043484   8.2123244  64.3225908  69.6657753  22.4758530  67.6955032
  68.8184738  22.4876785  67.2503471  69.5622683  23.0883145  68.4237957
   9.3623674  51.6434240  15.7168484   8.9573741  51.0998726  15.0410068
   8.7453437  52.3636198  15.8465946  16.2787688  42.8204155  35.2905226
  16.8836915  42.7820301  34.5496941  15.4729199  43.1835699  34.9231577
   0.6537262  67.2425699  46.7284203   0.9122382  68.1505632  46.5704536
   0.3780198  67.2280264  47.6449394  64.7624159  17.2092927  18.7021112
  64.3971205  18.0938160  18.6818874  64.0570593  16.6668665  19.0549278
  68.4789276   3.0662048  56.5290833  68.4476805   3.6053601  57.3193789
  69.0566826   3.5452703  55.9350014  82.5358772  59.4238949  16.8034136
  83.0309105  59.7259378  16.0418761  83.1779575  58.9538622  17.3354220
  20.8681226  50.9226465  37.6448250  21.6415095  50.9167528  38.2088041
  21.1031866  50.3559971  36.9100547   9.0981317  70.7906055   4.8976937
   9.6006387  71.3375664   5.5014765   9.7330344  70.1569605   4.5635897
  81.6269302  36.5338945   7.8152543  80.9656906  36.6146159   8.5026234
  81.7452908  37.4265933   7.4907398   4.0913656  50.2096605  27.1792221
   4.2694470  50.9185743  27.7972484   4.5591474  49.4556952  27.5383210
   0.8489474  59.1032124  14.3079722   1.0913993  58.5883808  15.0776470
   0.2938750  59.8026514  14.6528077  67.1018314  35.4468560  15.3695548
  67.5293159  36.2668562  15.6167150  66.2217188  35.5145049  15.7397676
  56.1596155  49.7498798  15.7196200  56.0699558  48.9512825  16.2396526
  55.9334517  49.4822979  14.8288465  39.6206355   0.8781053  45.2387381
  39.3306828   0.5361896  44.3930101  39.9549270   1.7530724  45.0414705
   7.6666850  54.4990253  34.2805767   7.4422747  55.4283381  34.3280578
   8.1937641  54.4202328  33.4854603  10.9959185  45.2986097  21.7046118
  11.4599800  45.8462143  22.3378634  11.4275026  44.4462538  21.7633772
  84.3157959  56.9296360  17.5894845  84.1516972  57.1347952  18.5099268
  83.4765816  56.6048527  17.2631884  66.5682507   7.9394430  67.4961901
  67.0263720   8.3316302  68.2395220  65.9372044   8.6061084  67.2249460
  13.1814432  61.8402290  13.2772636  12.8805387  61.1786556  12.6543558
  12.6582026  61.6844559  14.0635109  78.7283421  21.1053061  36.0395193
  78.4882975  20.3666306  35.4800820  79.3061876  20.7262826  36.7018414
  77.7117157  31.2936425  39.6964073  77.9028130  32.0782447  39.1824865
  78.1409025  30.5839229  39.2185688  38.0894375  11.6593182   5.8654720
  38.5664392  11.7653894   5.0423986  38.2227278  12.4867439   6.3278919
  64.2559195  28.8898587  62.6452541  65.0258923  28.7386870  62.0970583
  64.5952654  29.3491888  63.4134293  15.4400241  58.9164448  17.6729715
  14.9517345  58.1076145  17.5193441  16.3574660  58.6437130  17.6851809
  75.3923416  49.2891455  57.0133543  75.7234812  50.1635885  57.2181225
  75.1075697  48.9373016  57.8567648   0.4480878  43.8950682  69.3465137
   0.7558316  44.7961760  69.2489147  -0.2320161  43.9456606  70.0181770
  64.1517496   5.5993688  36.0278893  64.1195154   4.9679470  36.7465687
  63.6175013   5.2050322  35.3384638  60.5380726   1.7760395   0.3493251
  60.6092691   0.9067941   0.7437557  59.6992302   2.1135886   0.6633872
  18.9428544  78.5931301   2.0429926  19.2321599  78.9755344   1.2145596
  19.1488063  77.6618814   1.9617918  63.7465334   7.2892404   1.6028793
  63.2545567   7.3148757   0.7821880  63.0764914   7.2052044   2.2812712
  13.2862127  44.4281197  64.8430204  12.7041817  44.9492121  64.2899132
  13.0172515  43.5227346  64.6875620   3.2694191  45.4779053  66.9522476
   3.9050299  45.2628183  66.2696314   3.5203815  44.9285793  67.6948738
  82.8430557  30.4696631  63.2484102  83.2599735  31.0570550  62.6180267
  83.5626221  30.1573515  63.7969732  74.2397499  66.0443735  57.8959036
  73.8320541  66.1752558  57.0398188  74.5487976  65.1386118  57.8780508
  14.0472686  80.3085041   8.8745368  14.6481633  79.6003389   8.6428785
  13.6676562  80.0367737   9.7101736  67.2854137  22.1296692   8.9944071
  67.4355173  21.6188073   9.7898459  66.8986416  21.5067387   8.3791035
  25.2594924  51.8479443  27.1678042  24.5749545  51.3035774  27.5567865
  25.2373743  51.6309309  26.2357926  46.7278719  61.3940668  12.0420158
  46.0083771  60.9783411  12.5171196  47.5125885  61.1460924  12.5308549
   8.6796910  30.7203674  59.1847086   9.3798506  30.3836584  58.6255693
   8.1091762  29.9664688  59.3343163  84.2100906  51.0331583  59.5491982
  83.7250042  51.1522818  60.3657341  83.7630367  51.5995026  58.9202118
   3.0301276  26.2382555  68.6964035   2.3813370  26.9195271  68.5198450
   2.6366538  25.4372931  68.3501816  19.5760858  17.4770403  66.8021536
  19.7921968  16.5527606  66.9255829  18.6246812  17.5156927  66.8999672
  82.1475983  52.6449871  64.0865707  82.8412151  52.9455042  64.6737814
  81.3927555  52.5065041  64.6586466  78.4738207  29.4401765  68.4178114
  78.1604719  28.6052704  68.0699968  77.9190683  30.0977707  67.9982233
  28.3318067  33.8783813  66.0363388  27.5735092  34.4233489  66.2466383
  28.0709600  33.3979487  65.2506018  26.8095779  25.7750750   7.8883016
  25.9419608  25.4170728   8.0762041  27.3715258  25.4132342   8.5735160
  34.6437120  20.4590201   3.5952690  35.2246141  20.6741309   4.3250033
  33.7851930  20.7815075   3.8694552  57.1271086  66.5696049  15.4899824
  57.3500729  66.4524364  14.5665145  56.4506865  67.2468662  15.4889977
  67.8273869  56.1324453  69.2759800  68.1733513  56.7025232  68.5892820
  66.8767214  56.2033796  69.1897726  42.1561098  68.3703709  31.0885644
  42.6450491  68.1826591  30.2873564  42.0790482  69.3243361  31.1041784
  19.4571865  71.2735939   0.2486507  20.0992870  71.1891699  -0.4561970
  19.2948794  72.2147131   0.3133360  38.0351925   6.5683591  16.0953367
  38.1222725   6.2498492  16.9937801  37.9628944   5.7743400  15.5656779
  69.0637112   1.3356702  11.6595316  69.7413921   1.4364488  12.3279810
  68.2488775   1.2534691  12.1550345  83.4178448  20.7977104  53.3256912
  84.2281246  21.1154413  52.9273033  83.3079433  21.3377357  54.1083288
   0.6866221  38.4266758  56.3220882   0.5683590  39.1270328  55.6804132
   0.0060541  37.7884603  56.1082220  67.4193907  20.0052047  55.4277134
  68.1083059  19.4093490  55.1334620  67.4887466  19.9987090  56.3823748
  38.8360953  14.4567633   7.1864879  37.9068756  14.6531618   7.0672864
  39.2759967  14.9508715   6.4946961  49.5999432  76.0895109  10.3841054
  49.7746706  76.2755299   9.4615549  50.0607157  76.7809677  10.8593011
  28.4974074  70.5970812   3.9526504  29.4433951  70.6897593   3.8397306
  28.1772828  70.3380871   3.0885473   4.1407058  68.8449478  47.6189566
   4.4766840  68.9017391  48.5134554   4.5453492  68.0548573  47.2608328
  23.2282066  39.6703148  64.8539495  22.9872370  39.2558813  64.0254498
  22.6030612  39.3192267  65.4881144   6.1114246  40.5758047  66.4582253
   6.7284667  40.2799416  67.1275187   5.3235561  40.8134794  66.9471073
  47.0595694   2.5845823   3.5871217  47.4465895   1.9982947   2.9369572
  46.9141912   2.0297970   4.3534842  23.6810827  43.4993172  57.1227980
  24.4013333  43.4480524  56.4944315  23.8121486  44.3355989  57.5696564
  75.7926607  54.1912556  41.4968967  74.9978065  53.6685896  41.3907576
  75.7675648  54.4829893  42.4082088  70.9282064   9.8249727  12.3632407
  71.6780758  10.3938389  12.5373662  70.7076550   9.9931079  11.4470971
  20.9414506  63.7002611  47.9923677  21.8134904  63.3066177  48.0211163
  20.7357812  63.7589121  47.0593691  81.2731075   0.5273543  28.6495900
  81.0519028   1.3999552  28.9749646  82.1651840   0.6158769  28.3140516
  32.1940279  79.1966581  67.0136166  33.0154872  79.6151209  66.7560863
  32.1302557  79.3537474  67.9556799  21.9900703  54.7248507  63.4366512
  21.3650966  55.3489256  63.8056564  22.1272278  55.0259304  62.5384521
  72.0204830   7.9370522   6.3711017  72.1365356   8.8488793   6.6381872
  71.8019152   7.4761873   7.1810794   6.8978721  69.9323177  52.8879309
   6.1901373  69.5733118  53.4231520   7.6162416  69.3081474  52.9908371
   6.7336833  58.9621639  67.9753637   7.2079796  59.6093941  67.4534750
   7.4067605  58.3436012  68.2592297  79.4171190  62.4095631  37.8048873
  79.6495390  61.5027475  37.6051474  78.4652233  62.4395657  37.7088499
  27.6206088  68.5046625  67.4915409  26.9322467  68.8758516  68.0434561
  27.2961330  68.6143112  66.5977144  58.7993050  27.8773808  24.0502119
  58.1240416  27.9239678  23.3733964  58.8697958  28.7731075  24.3802714
   8.9023829  68.3570290  57.4138594   8.4949219  68.2104445  56.5602064
   9.8356444  68.2073832  57.2626591  20.8111668  51.6747618  66.1725712
  20.2149892  52.3858213  66.4075089  20.3659272  50.8810329  66.4691925
  57.6400948  25.0637317  22.0411396  57.1071243  24.3126655  21.7802262
  57.5107098  25.7038879  21.3413620   1.8647672  42.2350597  67.6053715
   1.4428540  42.5480366  66.8052053   1.4187726  42.7041578  68.3105421
  78.9648914  54.8085356  55.2677441  79.1808748  54.5288229  56.1573219
  78.0135441  54.9140072  55.2741718  57.4356985  13.9034963   2.0619786
  58.0521870  13.7837470   1.3396001  57.6017666  13.1619418   2.6440009
  27.8972077  51.1597538  52.8900957  28.4582496  51.5450764  53.5631418
  28.4584355  50.5246592  52.4452305   2.3852490  32.6544738  17.0259285
   2.7319494  32.9338598  17.8732622   2.8838795  31.8661046  16.8112814
  65.0985098   2.9378676   1.1353239  65.8817959   3.2923025   0.7145289
  64.7581530   2.2992960   0.5087323  63.4751034  20.4828262  10.3376651
  63.0182028  21.2712049  10.0445282  63.8375998  20.1042914   9.5367014
  43.0584908  79.9185038  41.8416691  43.9538670  80.0433636  41.5271187
  42.7152014  79.2013645  41.3086653  64.0801573  45.9714413   6.8189907
  63.3974218  45.3997707   6.4678538  63.6214590  46.7798710   7.0476097
  63.5857010  19.2131388   5.2649230  63.7366056  18.6496913   4.5059854
  63.7319231  20.1005435   4.9372548  21.1424756  69.0209723  65.2490950
  20.7551670  68.3100557  65.7598066  22.0864081  68.9126444  65.3652525
  19.9461031  67.6092100  62.1995592  20.8351636  67.2560549  62.2324896
  19.8422956  67.9129696  61.2977886  33.9500546  22.8379226  57.0217371
  34.5058513  22.9828715  57.7874470  33.1205225  22.5260758  57.3834801
  76.1881256  73.7762833  43.5569382  76.7713976  73.1813860  44.0282440
  76.3508368  74.6333313  43.9509296  79.3456268  67.1759272  65.7401133
  78.7790012  67.6098347  65.1022339  79.0649652  67.5247765  66.5861416
   3.4094223  32.3936725  51.7150688   3.3988503  31.6279697  51.1407709
   3.2645220  33.1355405  51.1278152  14.5058525  65.6601906  64.4320965
  14.2453814  66.3735056  65.0148249  14.6132088  64.9052858  65.0107384
  84.7846985  49.4315529  51.0717916  85.3342628  49.7756290  50.3676414
  84.7061348  50.1574612  51.6907597   1.1374114  49.9900484  62.0617723
   1.4624774  50.7187843  61.5330935   1.7049727  49.2546940  61.8307734
   1.7372862  56.6317368  52.1329165   0.8662514  56.9398785  52.3830748
   1.6485590  56.3840771  51.2125778   1.2837835  62.7743053  45.8570719
   1.7630723  63.5561991  46.1312199   1.5500979  62.6365709  44.9480391
  20.0857043  42.4862289  39.8193502  20.1999140  43.4018087  39.5645952
  20.8660579  42.0450926  39.4836760  36.7297482  31.3268781   2.9726586
  36.7800784  30.4183006   2.6756966  37.6125026  31.5261769   3.2845238
  10.5377507  57.4353075  66.2715054  10.5834877  58.3265781  65.9254265
  10.0434065  57.5200176  67.0867872   7.8997606  40.9371805  61.0717154
   7.4888730  40.9264660  61.9361734   8.8078821  40.6824493  61.2349892
  67.3357868  20.1609969  18.6035717  66.4869785  20.6033802  18.6112463
  67.7979755  20.5163932  19.3627203   5.0899643  56.0617065  39.6750736
   6.0305828  55.9159279  39.5740008   4.8933047  56.7812967  39.0752864
  55.4443455  15.0730991   8.7063026  56.0055923  15.1367247   7.9335260
  55.9881496  14.6365368   9.3619847  72.3429537  68.2523823  19.7283053
  72.9870319  68.2374048  20.4362392  72.2614050  69.1779327  19.4982326
   4.0610296  60.7764959  60.8995628   4.8974812  60.3131628  60.9431410
   4.0470430  61.3201380  61.6872787  70.8932781  70.2527571  66.0829926
  70.9147167  70.7145929  66.9211340  71.7892838  70.3152752  65.7520914
   9.3919325  48.7977648  30.2886558   8.9089388  49.2802238  29.6177006
   8.9142722  47.9734755  30.3814769  19.1155291  60.6397200  61.6844416
  19.9233842  61.1468315  61.6042185  19.3409204  59.7744989  61.3426399
   0.9009410  30.2918935  17.8631127   1.6395026  30.6696224  17.3855376
   0.8198071  30.8349180  18.6471879   1.8588297  49.7928572  64.8599863
   1.9562565  49.9447393  63.9199495   1.4694548  50.6009436  65.1940775
  77.5024986  55.2664471  29.3338013  76.6210938  55.2433920  29.7063899
  77.9766893  54.5762825  29.7975373  80.8022118  72.0793152  68.6863804
  79.9242210  72.3680210  68.9354086  80.7925415  72.0814180  67.7292299
  34.2412019  16.1619329  17.7940953  35.1065397  16.4146209  17.4722707
  33.6320400  16.7084455  17.2976303   0.8278354  69.4561529  64.5077944
   0.5484670  69.6336746  63.6096478   0.0340755  69.1560316  64.9506330
   7.2574335  56.2282705  62.3531008   7.5721025  55.4740763  62.8515100
   7.8831011  56.3182783  61.6343021  39.7619438   3.0270463  68.5110950
  39.6119857   3.3523771  69.3987370  39.4234300   3.7184387  67.9422235
  71.4661789  37.9545665  68.8966703  71.9934607  37.4498153  68.2774496
  71.6398907  38.8681960  68.6700964  22.1339321  32.5379896  55.3193855
  22.1283507  32.4932599  56.2755203  23.0251002  32.8077793  55.0974321
  19.0723515  41.3925934  66.0369205  19.5536232  42.1622896  65.7333088
  19.2253947  40.7323980  65.3609419  47.3769093  62.8289080  55.2973652
  47.0077372  62.1497202  54.7328758  48.0730200  62.3852968  55.7819986
  66.1487389  26.7484856   6.8443102  65.8106565  26.3174009   6.0593903
  66.2626982  26.0391784   7.4768662  18.7849236  53.4722662  59.3108034
  17.9571092  53.2962465  58.8636208  18.6835825  53.0653429  60.1712561
  49.9485731  21.8536282   2.5200891  50.2295446  21.0155606   2.1527608
  50.7588959  22.2703791   2.8132173  24.9507236  73.9604187   3.4714177
  24.6068621  73.0782557   3.3307964  25.8895373  73.8813210   3.3022922
   8.7474197  80.1431656  70.2670908   9.1747749  80.7829094  69.6975851
   8.8760763  79.3044710  69.8240709  23.9564562  45.7543087  58.3376837
  23.2082081  46.3484764  58.2800817  23.7567949  45.1893806  59.0841579
  55.0816202   7.6573032  53.5492849  54.3797493   7.3133230  52.9967546
  55.7614851   7.9278356  52.9321718  16.2283742  35.5039001  27.1213388
  16.8163264  35.3499532  26.3818479  16.6513956  36.2010837  27.6225591
  67.9367304   4.5377764   0.6645362  68.5341072   3.8149628   0.4724154
  68.3051777   4.9520692   1.4448172   8.1594872  54.0659332  63.6761427
   7.7445966  53.4294415  64.2583609   8.6889112  53.5359573  63.0802631
   3.9591691  44.9340820  47.5635672   4.5979249  45.4830027  48.0184460
   3.8963151  45.3152895  46.6878033  28.6336136  60.0196218  64.2775249
  28.8357401  60.8600044  63.8662624  28.8764215  60.1378202  65.1958418
  79.4822836  80.5587482  40.1309299  79.9262953  81.3273048  39.7726035
  80.1445580  79.8679590  40.1097345  27.5478148  78.9600563   6.3695145
  27.5299311  78.1803894   6.9245201  27.0159864  78.7250376   5.6091487
  55.4028273  10.4522002  10.2009988  54.9132347  10.8955395   9.5081902
  54.9593735  10.7088482  11.0095239  54.8612022  74.5437574  12.4960399
  54.3502331  74.8367548  11.7415214  55.3577280  73.7923622  12.1718550
   4.8789278  36.4898348  58.9960814   4.2512554  36.6428471  59.7023678
   4.3452916  36.4692760  58.2016993  14.3441331  63.9205122  66.6332054
  13.7072754  63.4810162  67.1966696  14.8968244  64.4160557  67.2375298
  32.1771669  70.8133554  62.8845882  32.8967571  70.7779408  63.5148001
  31.6550112  70.0336027  63.0731916  11.9116819  81.1362362  61.6262913
  12.7191234  81.3042355  61.1404467  11.7434871  80.2029896  61.4959240
  72.4698019  39.2868757  60.8415413  72.9765415  38.5313272  61.1391878
  71.8186855  39.4246364  61.5295124  83.3181953  39.3721628  21.1078501
  83.4636307  39.9407554  21.8640137  82.6826382  39.8455119  20.5709672
  41.2996864  64.6687222  59.2109156  40.6495810  64.2630005  58.6373425
  40.8525610  64.7608328  60.0522423  30.0032473  31.3161516  17.0135188
  30.7880378  31.0298896  17.4808431  29.4021821  31.5961599  17.7038431
  75.3007841  22.5527596   5.6019586  76.0282612  22.2077918   6.1196488
  74.5442104  22.0350480   5.8772904  13.8714218  52.3075724  41.5881443
  13.6722434  52.5838900  40.6936026  13.8283360  51.3517952  41.5587997
  12.7420461  21.8572760   6.5777057  13.5364997  22.3592019   6.7597616
  12.0617533  22.5201845   6.4594370  14.3723655  75.3109598  52.6772070
  14.1248167  74.6245289  52.0577192  13.7732935  76.0328245  52.4868059
  35.3812242  70.2672577   4.8356470  35.4220700  70.9436846   4.1596180
  35.6552744  69.4659376   4.3895423  24.9597502  79.7498846   2.1224371
  24.7038722  80.6650829   2.2371843  25.1955605  79.6813107   1.1972765
  61.4087248  20.9252858   7.7158713  60.8525181  20.3018856   8.1830329
  61.6718054  20.4622746   6.9204843  10.1199055  51.8985081  50.7586098
  10.2301455  50.9728098  50.5414295  10.6081247  52.0130253  51.5739346
  59.2308092  11.2222886  19.2124903  59.8621416  10.6604683  18.7630332
  58.7319660  11.6341865  18.5069942  46.0104418  63.0965805   4.0466914
  46.3021326  63.4441805   4.8894972  46.6977072  62.4815607   3.7904653
   8.0876529  45.2535915  57.4314022   7.4462962  45.8291435  57.8480911
   8.1605035  44.5064640  58.0253077  78.4872293  47.3833847  50.1363516
  78.8978863  47.3819828  49.2717218  78.0696249  48.2421970  50.2017736
  66.3053846   8.9108217   3.4982359  66.6037560   8.0022842   3.4561968
  66.6435146   9.2355907   4.3327579  12.5212789  67.6267290  68.5024166
  13.0851758  68.1847906  67.9668617  13.1091678  66.9567776  68.8513899
  16.8926525  51.9272280  43.1664324  16.8282843  52.5492764  42.4417639
  16.6739178  51.0811186  42.7759361  65.0091839  16.8171430  15.3037441
  65.2691793  15.8989751  15.3785825  65.0894356  17.1620464  16.1930323
  84.1801834  48.3486080  59.3823719  83.3364487  48.5168695  58.9627981
  84.5520115  49.2182302  59.5297956  78.6271906  47.6165247  64.3246174
  79.5319986  47.3413515  64.1768599  78.6277390  48.5543537  64.1330338
  61.1832571  31.6326928   9.6643788  60.9512472  31.8160462  10.5747545
  60.8926344  30.7322025   9.5198441  14.8968875  28.9494157  60.1814318
  14.7108293  28.7565041  61.1003447  15.7600212  28.5658407  60.0261831
  16.2226772  54.0510893  63.2011557  15.5524969  53.9515352  62.5250053
  15.9199047  54.7879314  63.7318325  13.2629466  75.2874565  66.8185616
  13.4174442  74.4844961  66.3209534  13.6057973  75.9850931  66.2599993
  64.1208458  17.2475445   3.4135571  64.3994713  16.3318288   3.4055868
  64.8413086  17.7207458   2.9973239  13.3732545  45.8172989  70.2705717
  13.3546174  45.4358292  69.3928671  13.4913969  45.0683212  70.8547878
  13.1151164  35.1580024  66.9721365  12.2871995  34.8106122  67.3039579
  13.3854270  34.5320368  66.3003254  83.0195236  71.3606358  57.9732037
  82.8331757  70.7251263  57.2820902  83.8987541  71.1340284  58.2762432
  33.0758595  25.6402254  60.1768637  32.7623796  25.1921892  60.9625006
  33.9640117  25.3068352  60.0493050  27.0159435  31.4455104  69.4931459
  26.2569785  31.3516021  68.9174843  27.7296591  31.7010641  68.9087343
  77.9312086  68.8828373  64.0640450  77.6767063  69.6936893  64.5044756
  78.5304117  69.1637993  63.3724928  30.6812239  56.5085459  51.0334396
  31.3166094  56.2678194  50.3592205  31.1556077  57.1123266  51.6049623
  17.8708971  44.8979044  59.6177006  18.5449231  44.2982197  59.2978573
  18.3472717  45.6986380  59.8370695  19.2829573  47.1957636  60.0770092
  20.0892186  47.3965645  60.5522490  18.5885787  47.5862980  60.6076241
  69.3856812  76.0415602  60.5701685  69.7991657  75.2310801  60.2728844
  69.2897844  75.9286356  61.5158367  23.2544780  60.0967598  61.7425585
  24.1417980  60.0894260  61.3836098  22.8618312  60.8972359  61.3942814
  25.5959558  53.2663012  68.7873316  24.6453071  53.1611061  68.7494993
  25.7304907  54.0262747  69.3535233  58.0979538  29.8999000   7.9281473
  58.8985586  29.3842959   7.8311223  58.4022665  30.8052731   7.9908085
  58.9506102  37.3249722   8.0818236  58.0070686  37.2583818   8.2285386
  59.0480137  37.2910380   7.1301973  79.3861485  30.1971316  65.3211451
  79.3994570  30.5273438  64.4228077  79.8401642  30.8688378  65.8299828
   3.3276221  37.7013183  68.1041622   3.0151719  38.3407116  68.7443066
   3.1198627  38.0913234  67.2550678  62.3824024   1.3118371  16.1770022
  61.5401602   1.7098913  15.9569645  62.3483992   1.1883023  17.1255875
  19.8480880  39.3128181  63.8458490  19.8300123  38.6122179  64.4978189
  18.9777637  39.2922068  63.4479237  12.3974693  80.5918789  67.4461794
  13.2001269  80.1889133  67.7772236  11.7761374  79.8669672  67.3777342
  16.7720127  57.2448969  31.4212513  15.8224857  57.2482967  31.3003421
  16.8984532  56.9278193  32.3155141  16.5989327  64.3111515  62.9388666
  15.9596062  64.7624636  63.4900570  16.1118507  64.0786266  62.1483517
  66.6752195  20.3977489   5.5670893  65.9311152  20.8374095   5.1557028
  66.8234587  19.6216404   5.0268000  23.8532066  65.3968000  53.2365704
  23.1416988  64.7596741  53.1728554  23.4802341  66.1232042  53.7360334
   3.0635270  48.4764910  67.2675896   3.1100979  48.6203575  66.3224077
   2.3562804  49.0500784  67.5626040  26.4072919  59.6043110  50.9615993
  26.2026954  58.8440514  50.4171896  27.3629928  59.6105814  51.0147905
  65.6166935   4.1610819  11.8215430  64.8939562   4.7736907  11.9579041
  66.2549448   4.6545050  11.3063705  62.4267626  18.0265296  15.0123823
  62.0453358  17.1549582  14.9069762  63.3694315  17.8702199  15.0687075
  41.7682123  60.3295231  58.7106895  42.4001360  59.6109676  58.6865425
  42.1638823  61.0146618  58.1719351  10.6262827  55.1190519  69.6032095
  10.4272807  54.5625448  68.8502645  10.7798958  54.5048094  70.3210831
   3.0133253  60.8511829  58.6106968   3.5185868  61.1211061  59.3775606
   2.9518858  59.8990393  58.6873531  43.4292030  16.2275743  61.3057899
  44.0732145  16.8339157  61.6716194  43.8095188  15.3605390  61.4466524
   9.3763936  43.1041861  62.9376030  10.2407491  42.7529335  62.7237320
   9.1956413  42.7758169  63.8183594  11.0845113  73.7900591  53.5698700
  11.8582535  73.2374048  53.4597445  11.2686157  74.5676565  53.0429125
   5.1529956  22.9492903  14.8376465   5.0012875  23.5658669  14.1213703
   5.6038684  22.2114611  14.4270945  82.5129032  55.1325750  62.3439646
  83.2541466  55.2383995  61.7476463  82.8584385  54.6054983  63.0643988
  50.2854681  16.6540110  63.6032295  49.4253302  16.8747211  63.2459068
  50.7797050  16.3254976  62.8522015  40.2703714  60.9166002  60.9447384
  40.9625912  60.7465124  60.3058815  40.5272484  61.7382812  61.3631678
  64.1401052  21.6934538  68.5028076  63.4062910  21.3548899  69.0157604
  63.8713264  21.5732527  67.5920153  47.2627163   4.7980860  63.4400034
  47.7305460   5.3722298  62.8336000  47.6420498   4.9944305  64.2966175
  53.4688997   8.7790793  69.7827339  53.7696457   9.0449262  70.6517029
  53.3455563   7.8323340  69.8512363  14.0966380  76.8458939  48.0946779
  13.5301602  76.2613201  48.5982752  14.9803436  76.6498375  48.4059000
  32.6676393  66.4643049  49.9367762  32.9757428  66.7832184  50.7850695
  32.8136086  67.1967888  49.3381214  27.9390049  72.9995918  67.6920128
  27.0717740  73.1913137  68.0489206  27.7648187  72.4950647  66.8974400
  51.0964966   4.4488615  39.6103740  50.8244085   3.6754528  40.1043749
  51.9753933   4.6438166  39.9355865   0.9883642  29.6203899   8.8241601
   1.3652942  28.7520432   8.6822873   1.5553916  30.2114701   8.3288449
  57.6748705   0.4971812   0.9732928  57.4247980  -0.3246518   1.3955322
  56.8666410   1.0094201   0.9486569   1.4040188  65.8219957  59.2019224
   2.0929694  66.2085915  58.6614418   0.5944375  66.2138462  58.8744211
  36.6712904  59.2609406  56.8834400  36.3249683  59.3250799  57.7734852
  37.6218176  59.2826128  56.9941473  69.8094559  23.1757689   3.4335899
  69.2567205  23.9296985   3.6392701  69.6275377  22.5476217   4.1325653
  69.0915918  16.4896762   6.7398989  69.1191959  16.5830708   5.7876658
  68.3732319  17.0590115   7.0156741  63.4321213  33.0154395   3.8476408
  62.7755785  33.6892223   4.0242630  63.8738966  32.8856707   4.6868244
   0.2038483  44.8828459  57.0063257   0.7609253  44.5515585  57.7107048
   0.2943476  44.2371082  56.3055658  66.6440344  32.9669046   8.4762806
  66.3450289  33.2948399   9.3243879  67.5982809  33.0291224   8.5183269
  25.1278973  66.1285210  59.0363741  25.2929020  65.3484917  59.5660496
  25.5943537  66.8298721  59.4910765  16.0946715  74.0475178  68.7002516
  16.8046904  74.3777275  69.2507648  15.2999902  74.2203379  69.2050743
  83.8618088  77.5408268  57.0356798  83.5193539  77.1254492  57.8271437
  84.8074913  77.4000120  57.0812941  13.0291557  65.4958105  61.9609070
  12.9207790  66.3225698  61.4908504  13.6658084  65.6926394  62.6480484
  72.3660278  23.3883548  17.0886850  72.7649832  23.6197257  17.9274535
  71.6706085  22.7712703  17.3163474  32.8061819  11.8234980  47.5523281
  32.6311088  11.9162083  48.4888029  33.7480330  11.6611016  47.4996710
  21.5274715  58.4833717  51.8718815  21.3988614  57.5770378  52.1516228
  21.4303207  58.4563160  50.9200096  60.1629400  31.1790514   0.3491125
  59.8369646  31.4500713   1.2073187  61.0662413  31.4948392   0.3253539
   3.6843568  66.9401503  58.3206797   4.0490970  67.7910471  58.0774450
   4.4324321  66.4458323  58.6557436   9.8175806  17.7253199   8.7484825
  10.2231789  18.5823882   8.6175060   9.5708787  17.4401259   7.8686899
  76.1681032  59.7939825  43.0425739  76.5542889  59.0601254  42.5645113
  76.4645672  59.6746302  43.9448452  10.0892210  63.6201906  51.2102270
   9.6035111  63.0281639  51.7845297   9.5489359  63.6869526  50.4229116
  71.5969133  19.4663727   5.5462140  71.5444660  18.9406753   6.3444138
  72.2031736  18.9859474   4.9824166  24.7599196  80.0273609  61.9729948
  24.9283814  80.7701111  62.5528097  25.1751971  80.2704525  61.1455393
  66.7971754  40.4151869  10.2242172  66.7469883  41.3499451  10.4240632
  66.3652611  40.3284168   9.3744212  30.0990319  79.6613503  55.3048563
  29.1442108  79.7027636  55.3580713  30.2733517  78.9834499  54.6519423
  41.2482357  67.2788668  58.3196068  42.1097898  67.3672199  57.9119921
  41.2602711  66.4090347  58.7189579  57.9577065   9.7582394  66.2036324
  57.2929001   9.1502076  65.8802795  58.7535477   9.5172912  65.7294893
   8.6978936  79.7362709  52.9478407   8.8930213  80.3114319  52.2080088
   9.0978950  80.1708508  53.7010765  76.1103249  10.7828140  61.2227631
  75.4058790  11.3705838  60.9497833  76.8586159  11.0392618  60.6837511
  18.7614834  18.2382357   2.4232310  18.2884359  17.6868045   1.8000282
  19.5634151  17.7513576   2.6132005  33.7758470  56.1345100  53.7221193
  33.9170218  57.0064688  54.0908909  33.7659383  56.2736893  52.7751446
  54.1527605   9.6434009  63.2653332  53.6827040   9.5939904  64.0977001
  53.5075808   9.3783033  62.6098156   5.5136222  69.4059086  50.0479937
   4.8801631  69.5822811  50.7435942   6.2996238  69.1122627  50.5086517
  35.2171564  49.4298601   3.2120153  34.9401188  49.1527939   2.3386788
  35.8860445  50.0954103   3.0511981  59.6594858   1.4690544  49.3254089
  60.1004076   1.7179041  50.1377487  60.2404070   0.8213984  48.9262772
  76.2364388  37.2937465   0.3652367  76.9296551  37.9243422   0.5602624
  75.4239559  37.7801681   0.5048591  71.6738081  27.6504350   0.4668758
  70.9804821  27.0943499   0.8222657  71.2137365  28.2856870  -0.0817789
  85.5754948  34.0301037   0.9372035  84.6622372  34.2134595   0.7167958
  86.0812378  34.5849657   0.3434168  76.7635918  27.8247643  10.6218648
  76.6915703  28.7180138  10.9582472  75.9280682  27.4157953  10.8474314
   9.6334743  77.6783657  69.2912531  10.2874064  77.0152760  69.5124245
   9.9921012  78.1212664  68.5221910  81.8751144  53.4747553  16.5101755
  81.8245792  53.0428123  15.6574714  82.8126240  53.5902500  16.6649723
  22.6904988  66.8901491  51.2083626  23.1108475  66.2781906  51.8125534
  21.8708920  66.4603949  50.9638453  60.9142303  36.6463494   0.6597319
  61.8674803  36.7251277   0.6231780  60.6122971  37.5141621   0.9280053
  61.1542654  34.4042516   4.7203481  61.1418724  35.2727389   4.3180943
  61.3935852  34.5663381   5.6328654  84.6761799  41.8184328  10.4564822
  84.0478230  41.8204498  11.1785638  84.2872715  41.2380219   9.8021817
  54.4931936   3.2826611  63.4112120  55.2071714   2.6737213  63.6000490
  54.6848774   4.0507591  63.9492798   8.1045753  58.4109449  59.1202450
   7.7443492  58.6132288  59.9836969   7.9753596  59.2123795  58.6130619
  21.2184620  75.4624891  63.9099121  21.9725633  75.4853106  64.4990158
  21.3517737  76.2054634  63.3213139  16.3897324  73.7216711  65.9917021
  16.7972457  74.5596170  65.7725763  15.9639883  73.8756657  66.8350649
  41.6488075   0.7285221  57.9945564  40.8896351   0.3914344  57.5188780
  41.8857145   1.5310389  57.5297165  42.5942802  13.6828053  63.2446814
  42.4359798  14.4618094  63.7779045  42.7857780  12.9927111  63.8797665
  60.9684849  39.8342609  12.4189222  60.5158472  39.1519284  11.9231653
  61.7387390  39.3962455  12.7809727  37.4204183  75.1420403  49.2013502
  37.4536896  75.8762455  48.5881090  37.1507287  75.5352545  50.0313425
   6.6671169  26.7137003   8.2651055   6.0801703  26.8249273   7.5172055
   7.2061503  25.9566045   8.0360216   6.9839329  44.2844248  62.2653151
   6.7880380  43.8084507  61.4582825   7.8838682  44.0365076  62.4771690
  41.6711617  20.2503014  54.7252226  42.3067522  20.8336592  54.3105602
  42.1280813  19.4125152  54.7998524  19.5100999  72.6305866  65.9628868
  19.0873849  73.4644604  65.7574606  19.3025541  72.0668554  65.2176571
  35.0252771  62.0928860  65.5003166  35.3785920  61.2197208  65.6705761
  34.0758276  61.9713354  65.5006647  35.3180790  10.1880395  50.9358120
  34.4316530  10.2548134  51.2908077  35.3072834   9.3856770  50.4139566
  64.8716927  24.4929814  20.9766269  64.9479771  25.3916168  21.2973523
  64.0574694  24.4865823  20.4734039  76.0777998  51.0887575   4.4422233
  76.0852623  51.5513849   3.6042771  75.8441830  51.7594099   5.0840038
  19.3413353  22.9184437   8.9294916  19.1729617  22.0978951   8.4662598
  20.2140355  23.1830025   8.6385733  63.8345480  20.4452038   0.1839457
  63.5354280  20.0593758  -0.6393987  63.1110907  21.0069203   0.4620010
  37.0802188   7.5722861  46.9779634  37.4807024   8.0091780  46.2263155
  36.8947649   6.6855854  46.6687679  74.6264076   2.6526383  63.5055304
  75.5173016   2.3162395  63.4086943  74.4510698   3.1070018  62.6814890
  34.2108083   9.6167934  57.5304031  34.6131444   8.8119781  57.2038603
  34.2524815   9.5358765  58.4832668  18.2104051  62.6902676  59.1440105
  19.0494645  62.4309301  58.7632799  18.3459938  63.5937643  59.4295645
  28.2405972  67.6039171  54.4346523  27.7190089  67.3385239  55.1921082
  27.9030418  67.0727539  53.7134361  30.1103616  72.2369146  55.4191351
  29.6999002  71.9965887  54.5884752  31.0183907  72.4341965  55.1893616
  69.1264772  63.2745266  48.9824295  69.6756124  63.2667828  49.7664070
  68.5317755  64.0129662  49.1138458  36.0443068  19.0220845  62.6625156
  36.1640048  18.1564796  62.2718334  36.7863822  19.1202927  63.2591009
  37.1491742  72.5257826  68.7658072  37.0413566  72.6185894  69.7123766
  38.0190921  72.1405840  68.6604595  15.2816403  80.4711342  40.6761217
  14.6959662  80.6661987  39.9445724  15.1068211  79.5534611  40.8847761
   1.2417799  70.4657745  56.2213421   0.8526525  69.6186113  56.0042572
   2.0293754  70.5134916  55.6794500  63.3760071  15.4743195  21.9374943
  63.7481117  16.2523961  22.3526645  62.4405479  15.6645703  21.8671560
  68.2398224  33.9997959   5.6681168  68.6529589  34.0305710   4.8052123
  68.2987165  33.0807805   5.9292197  70.8091545  45.2486706   7.1481967
  70.4853868  45.5780554   7.9865956  70.6860590  45.9780407   6.5406609
   2.4256046  29.6228266  13.6628568   2.6187634  30.0157857  12.8116775
   1.4776546  29.7141218  13.7592292  73.3811235  47.2792673   7.9007775
  72.5845194  47.7419949   7.6409006  73.9883947  47.4214649   7.1746707
  44.5413542  65.5182219  59.7096872  45.4979610  65.4893160  59.6923780
  44.2906618  65.6961060  58.8031864  32.3422074   8.4110862  67.2286463
  32.0167732   8.4597921  68.1275082  33.2903910   8.3189625  67.3218727
  58.4078026  11.6426098   3.6311457  58.0775070  10.8630896   3.1845069
  58.0355453  11.5900731   4.5114282   7.0753354  61.3235903  66.3966179
   6.2671399  61.8357372  66.3691616   7.7567524  61.9364405  66.1203718
  12.8873754  50.0620461  62.7190304  13.7510514  50.1171255  62.3100519
  12.9667187  50.5840158  63.5174561  60.0259638  30.8041477  24.1051412
  59.7141695  31.6591716  23.8085842  60.6353378  31.0046339  24.8155665
   4.2327768  47.0519114  42.1208525   4.2493159  47.8704548  42.6167774
   3.7641323  46.4384317  42.6867580  15.3279984  77.0925903  68.9558554
  14.6825838  76.3906908  69.0395546  15.3631115  77.2749567  68.0168438
  15.4467189  80.1535511  56.4257669  16.2565863  80.6621742  56.4664125
  14.8573351  80.5922413  57.0392895  34.4414639  14.4259346  59.8486900
  33.9612246  14.0019929  60.5599403  34.7750235  13.7013018  59.3196583
  25.5855489  74.6616316  67.6923943  25.1301336  74.4703102  66.8725014
  26.1820960  75.3775215  67.4736071  76.7340374  21.3887739  12.2660375
  77.1683168  22.1888351  11.9701767  76.8760395  21.3751554  13.2125473
  32.3186851  66.6009331  55.9560537  33.1117249  66.1506796  55.6652117
  31.6749907  65.9019279  56.0712957  15.8861172  28.5694909  23.7694764
  16.4037931  27.8434300  24.1174436  15.0029266  28.2118607  23.6783361
  22.1405911  71.8876410  66.0817480  22.1089482  70.9414053  65.9407854
  21.2610269  72.1925354  65.8589506  62.7348661  36.5790009  10.9370041
  62.4911833  36.9026566  10.0697684  63.6127090  36.9303870  11.0858381
  23.2164979  21.7290378  67.1998787  22.9075027  22.5031900  67.6704597
  23.0248547  21.9151306  66.2807083  77.4999762  66.9021511  43.5900736
  78.1643343  66.6171789  44.2174911  77.6458168  67.8436708  43.4978771
   8.8856107  57.1923685  69.1959572   8.4207201  57.5021124  69.9732399
   9.4226015  56.4656401  69.5117760  43.4116459  14.8384655  49.6691036
  42.5598145  14.8592186  50.1052094  43.9715528  15.3948402  50.2105665
  62.6782179  46.9484568  21.7850232  62.2619057  47.2380877  20.9732175
  63.6125422  47.0997572  21.6422701   7.6858038  39.3095613  23.1429052
   6.7403328  39.4475436  23.0856609   8.0602086  39.9731278  22.5634789
  16.0755527  43.9534187  65.3953743  15.1566088  43.8867712  65.1358938
  16.4921606  43.1875753  65.0002193  25.6485152  45.9562874  36.9035316
  25.2807379  45.3868866  37.5793695  26.4068246  45.4754591  36.5718627
  37.6423502  71.5814781  59.9209642  36.9443440  71.2257099  59.3710089
  37.1944189  71.8828773  60.7113743  45.3910208   5.8137631  47.3158598
  45.1788998   6.5507686  46.7430925  46.3456297   5.7517034  47.2827435
   5.8445317  50.3731155   8.7271309   5.0860631  50.8874607   9.0035409
   5.9059161  50.5247307   7.7840108  37.0044160  12.2493088  68.1136370
  36.6609049  11.6939592  67.4137640  36.7219114  13.1331396  67.8785467
  65.0876045  45.0086975  26.8688560  64.7582340  44.6035719  26.0665965
  65.8768845  44.5108509  27.0819855  78.5490894  13.5777056   5.1114202
  78.8501692  13.8969326   5.9621125  79.1197538  12.8336549   4.9191600
  76.6321802  49.4224453  48.7428570  76.6945457  48.7525177  48.0620193
  76.4204884  50.2266550  48.2688761   7.6046896  71.0089445  42.6964617
   6.9887513  70.2928066  42.5415373   7.3905444  71.6581964  42.0265007
  11.6362822  55.7856512  51.4127970  11.6959238  55.2071762  52.1730852
  11.8448436  55.2231646  50.6669140   1.0807756  41.1651373   7.5326055
   0.8405980  40.2441883   7.6345861   1.9571295  41.1429691   7.1482307
  85.1973438  36.8750477  18.4658206  85.5990314  36.0302067  18.6686075
  85.2395535  37.3637724  19.2877686  15.7161188  49.7075462  62.7498055
  15.6135821  50.4592419  62.1661377  16.6216660  49.7630405  63.0549860
  20.5784750  65.7014894  49.8632193  20.6119061  65.1038027  49.1162968
  20.5256534  66.5728378  49.4705439  48.2500076   2.9810873  26.7773914
  48.6670637   3.8425547  26.7905545  47.5660563   3.0562416  26.1119676
  42.5105619   4.2649183  54.5482540  43.4065437   4.1149709  54.2466497
  42.3866892   5.2108461  54.4701099  73.0592728  21.3903928   6.7387539
  72.4583292  21.4706469   7.4794692  72.7969217  20.5788040   6.3043278
  70.3352499  13.8617814  15.8057165  70.2770758  13.9430201  14.8537469
  69.6693420  14.4634485  16.1385810  27.6977277  77.7754450  35.4931569
  27.8454018  78.6631632  35.1669931  27.3437071  77.8996325  36.3737702
  42.3035717  78.1300831  61.8565226  42.0516253  78.1028032  62.7795649
  42.8422689  77.3486996  61.7320919  12.7178192  62.8938913  44.5613194
  13.6295116  63.0861330  44.3420219  12.7430511  62.6312780  45.4814434
  12.6578832  62.0655441  63.3127022  13.5838699  61.8240786  63.2909107
  12.4891090  62.4455738  62.4505377  35.7005239  20.3607631  57.5742340
  35.3287888  20.1678705  58.4349537  34.9396515  20.5028796  57.0111132
   0.7330763  62.7574778  27.7601862  -0.2001960  62.8012705  27.5520587
   1.0259005  63.6685705  27.7403665  25.7019496  31.9332981   4.3242806
  26.5741086  32.1575832   4.6487337  25.7375336  32.1276283   3.3876902
  34.3406105  68.0803013  67.1363926  34.9378443  68.8262224  67.1924305
  33.9332056  68.0341625  68.0013323  84.7919846  16.5436900   6.5939671
  84.6991444  17.2324705   7.2521418  85.5088997  16.8422067   6.0343671
  23.6121392  60.9810162  10.3548634  24.4530416  61.1863041   9.9462402
  23.7488461  60.1290560  10.7692337  52.0413637   4.6425775  52.3914576
  52.4157190   5.3705740  51.8953657  51.8104362   5.0236940  53.2386065
  71.9513321  11.9011664  68.8321304  71.5781307  12.4297631  68.1267691
  71.3674021  11.1457527  68.9000082   1.6376294  70.3864527   5.2919888
   0.8602361  69.9698305   4.9200782   2.2534056  69.6663427   5.4279739
  64.1398096  42.3356104  19.9442244  64.7324944  43.0585432  19.7385037
  63.6954880  42.1475077  19.1175270  74.0181255  60.7897043  25.2137637
  73.1041479  61.0651541  25.2844954  74.3073559  60.6843472  26.1201191
   6.4565694  41.5629482  18.7680829   6.0699457  40.7474661  19.0870452
   6.6155553  42.0780754  19.5590329  80.2379227  29.7379160   7.9853833
  79.3492460  29.9756265   8.2499284  80.6381893  29.3853235   8.7801778
  77.2657061   9.2077452  49.5222378  76.8252707   8.3778214  49.7052050
  78.1774712   9.0547991  49.7702646   3.4122995  40.0408602   6.2204999
   3.3647600  39.7506261   7.1313983   3.9255694  39.3636632   5.7798296
  69.7173500   4.8543999  54.6972513  69.9165058   4.4121704  53.8720226
  69.3153429   5.6823534  54.4343567  82.0967674  44.5565748   4.4426635
  81.1815071  44.5066357   4.7184247  82.5411892  43.8892031   4.9654827
  60.7787323  50.8009195   3.0748960  61.6208363  50.3583574   2.9689080
  61.0019350  51.6550589   3.4448427  30.3009772  77.1618176  66.5592670
  30.8922720  77.7856970  66.9804335  30.8791661  76.5770578  66.0693836
  78.4941053  36.4912415   9.6226561  78.1137276  36.3721156   8.7523961
  78.2875013  35.6803393  10.0873983  10.2459872  52.0700359  11.2469423
  10.5791509  52.0113850  12.1423721  10.9596133  52.4721909  10.7517278
   7.1032721  16.6755199  19.9936199   6.2125993  17.0134497  19.9001479
   7.5997460  17.1146107  19.3030083  59.5068884  17.0427537  66.9201422
  59.8822832  17.9184985  66.8285942  58.5604715  17.1858072  66.9120646
   9.7524661  41.3627958  27.5722718  10.6826365  41.4893150  27.7593732
   9.4037241  40.9479237  28.3612561   0.8004335  56.3787365  33.8609552
   1.2015392  55.8953571  34.5832372   0.1739544  56.9657183  34.2842817
  84.7370338  23.4301543  36.7151141  85.4663944  23.9078641  36.3200760
  84.5373535  22.7358413  36.0871887  11.7728436  43.1519556   1.0057975
  12.2875810  42.6826000   0.3493040  10.8822513  43.1544018   0.6549826
  75.6638336  28.0826402  65.1559258  76.1687517  27.4472070  64.6484661
  74.7820473  28.0380297  64.7862053  51.9915771  77.6835871  50.7073832
  52.5002432  77.0912743  51.2611485  52.3882389  77.6005459  49.8402071
  37.3810148  59.3030167  64.6788168  36.4986181  59.1949177  65.0336742
  37.7348280  60.0613451  65.1435566   9.6854556  40.6234360   6.6824621
  10.3951025  40.1411676   6.2581372   9.1378790  40.9292793   5.9593773
  30.7880616  78.3485937  44.3545628  30.0390029  78.2272530  43.7711096
  30.5160689  79.0454340  44.9517727  15.8799934  44.2961025   5.5041862
  16.2168205  45.0769234   5.0647599  14.9673176  44.2372274   5.2217174
   9.7814918  22.1187544   9.5866579   9.5961303  22.9218245   9.0998793
   9.8348993  22.3993683  10.5002415   1.7153448  43.4445810  25.5050683
   1.7221522  42.8524351  26.2570977   2.5716931  43.3214521  25.0955081
  34.5904493  72.5153542  53.1023169  35.1261401  71.7223263  53.1215763
  35.1129341  73.1453323  52.6059628  64.8937368  12.2259676  62.5364161
  65.8235121  12.0748532  62.3663807  64.6073580  12.7896845  61.8177795
  78.2103062  11.5719438  65.2348709  77.8513145  11.0480380  64.5187140
  78.9749193  11.0789144  65.5323935  28.1187558  75.8976984  58.8494110
  28.7867165  76.3780880  58.3602428  28.4859586  75.0204277  58.9579725
  40.7572746  55.6180668  67.5932074  40.3947687  56.3943720  68.0200243
  41.0817289  55.0780392  68.3138514   1.1871634  48.3960533   2.2689617
   0.9145827  47.4884272   2.1342683   1.4623183  48.4300518   3.1851307
  69.1354847   6.8337995  68.8648701  69.0665197   7.1677458  67.9704666
  69.6468735   6.0289884  68.7812710  10.4677236  29.1264176  57.1242809
  10.9869397  28.3717895  57.4020958  10.8640170  29.3981075  56.2964106
   2.9016596  22.3953104  48.5527658   2.4330974  22.0039725  47.8155136
   3.8094619  22.4548960  48.2551479  78.2077503   2.4392518  59.2569542
  78.3063173   2.8955537  58.4213114  77.3261023   2.0679349  59.2245626
  10.9850228  34.8960590  62.3167372  10.3708506  35.5940008  62.5445557
  10.4835129  34.0888500  62.4313450  24.4561410  42.4907970  11.5932262
  23.5569096  42.5096989  11.2657225  24.8515415  43.2937765  11.2539411
   5.1408130  20.4859877  49.5207644   5.9815001  20.8001637  49.1879416
   4.9410877  19.7202456  48.9822674  83.4696007  35.6672168  68.8357162
  83.6262894  36.0226321  69.7105694  82.5207520  35.5490136  68.7916279
  60.4399109  33.4518123  59.4216871  60.5954838  32.6618314  58.9040422
  60.1485062  33.1265068  60.2734470  44.4047880  72.7280569  20.4310107
  45.0208235  73.4136105  20.1726532  43.7381411  73.1857157  20.9432197
   6.8898594   5.0135988  49.5831013   6.8526542   5.5589318  48.7973166
   5.9824330   4.9645236  49.8837709  25.9121132  41.5995026   8.0418831
  26.0367227  42.2403049   7.3418260  26.6565800  41.0038996   7.9566979
  17.9659319  17.7005398  61.7623901  17.7505994  18.5380781  62.1727467
  18.9166081  17.7246022  61.6534567  20.3563142  31.7198014  60.1415062
  21.1614132  32.2302604  60.2280045  19.7833574  32.0577073  60.8298159
  23.9356184  11.3191926   5.9622836  22.9852319  11.2938201   6.0734338
  24.0757489  11.9275808   5.2367085  10.5736279  80.7235813   7.7764893
   9.8096722  81.2416649   7.5231379  10.8633566  80.3105164   6.9630599
  85.3421211  15.8080316  60.5334044  86.0565758  15.2779210  60.1801729
  85.7709312  16.5960479  60.8671474  83.8210678  41.6746235  63.3282661
  84.7188568  41.7121220  62.9984426  83.6074448  40.7415962  63.3358002
   7.4691534  28.1107664  38.1752634   8.4114206  28.2471919  38.2740211
   7.0873517  28.4966040  38.9636731  22.6204944  25.4018760  50.6897593
  21.7359567  25.2017307  50.3835487  22.6796055  26.3561511  50.6439781
  80.0823021  27.0581722  31.1077428  80.2338886  27.7438545  31.7582011
  79.6938992  27.5165606  30.3625870  23.4787893  13.5424399  56.7513132
  23.1307840  13.8411522  57.5914907  24.4290924  13.5669315  56.8633556
  28.5883689  68.5272932  11.1644387  29.2755246  68.9772415  11.6559637
  28.8274741  68.6553955  10.2464783  32.3274708  79.0505886  18.4844732
  33.1011915  79.1847754  17.9371309  32.4566174  79.6372414  19.2297184
  83.8917828  45.5548954  38.5882425  83.1166935  45.0359249  38.8030481
  83.7639427  46.3807678  39.0549660  37.8146410  52.8955030  11.6562474
  37.8877854  51.9433641  11.7218924  36.8839836  53.0538893  11.4980614
  33.4579897  63.8604212   6.2633801  32.8914428  64.3845844   5.6972468
  33.0323887  63.0038786   6.3012028   1.2207161  10.5707896  69.2560005
   0.4940488  10.1033473  69.6679258   0.7993785  11.2068558  68.6779642
  74.3529606  75.7885981  59.7354221  74.8170137  74.9538994  59.6708393
  73.9102411  75.8823872  58.8919544  10.7399559  29.2835307  68.3671379
  10.0353312  29.4348979  68.9970732  10.3354120  28.7579155  67.6769876
  10.2602756  23.4696484  64.2376757  10.4372787  24.1335559  63.5712433
   9.6715695  23.9021683  64.8562050  18.0168951  46.7629051  52.4351120
  17.5724173  47.3552513  53.0415726  18.4695268  46.1368608  53.0002928
  14.5411932  16.7362666  52.2789192  14.4504464  16.3793015  53.1624222
  13.6524785  16.9913161  52.0311975  11.1268926  12.0072901  30.5251408
  11.3196349  12.7155876  31.1394691  10.5267417  11.4336753  31.0016036
   4.8708412  18.0953646  58.9368248   5.2677226  17.7313089  59.7281408
   3.9687592  18.2915437  59.1897917   2.1434250   3.5094067  45.4862452
   2.6626164   3.0328727  44.8384905   2.7831262   3.8101453  46.1316681
   4.3106535   2.7326709  55.9212971   3.8119653   2.2475736  55.2638578
   4.7303891   3.4391081  55.4303789  73.9480400  16.4016747  50.4992294
  73.3739567  16.8517363  49.8794651  73.6126280  15.5056643  50.5291653
  81.7199707  43.1745625  42.1005917  82.1213531  43.9797926  42.4272966
  82.0925426  42.4824810  42.6468945  36.2009335  28.6143589  61.1483145
  36.0645938  29.5617747  61.1551857  37.0376968  28.4895396  61.5960598
  82.8920841  24.2949295  43.9702225  82.6966095  25.2270532  44.0659761
  82.8602791  24.1392684  43.0262995   5.6435943  30.7045507  43.2559824
   4.8527196  31.2309074  43.3730221   6.3425577  31.2337923  43.6401558
  79.7355938  38.7501073  65.2765656  79.6816587  38.0207062  64.6590710
  78.9606762  39.2799926  65.0896072  21.8538761  49.3547344  69.1667414
  22.5687981  49.6771622  68.6179590  21.8129611  48.4167957  68.9801359
  17.7267039  53.8190222  55.4988003  17.5501609  52.8895330  55.3534698
  18.4965169  54.0035963  54.9606991  79.3126106  55.9520769  68.8626337
  78.9143372  55.1228380  68.5981083  79.5444107  56.3801289  68.0384541
  21.3020134  72.9032612   4.7624737  21.2613440  73.6839914   5.3147727
  22.0856929  72.4405766   5.0591284   1.4363302  45.2456570  44.8877573
   2.0385680  45.8422422  45.3323126   0.6351298  45.2807617  45.4103231
  26.0605717  69.1390324   9.9039543  26.6396284  68.6266804  10.4682434
  25.3349423  69.3939781  10.4737759  72.7346325  26.2124014  53.5341692
  72.3449802  26.5767980  52.7394247  73.6546755  26.4729738  53.4910297
  35.3309774  75.4593086  21.0306072  35.9423137  75.1666832  21.7065287
  34.4686723  75.3860617  21.4396238  85.3183270  41.2820625  52.8862429
  84.5869350  40.8467627  53.3241987  84.9914551  42.1599197  52.6894093
  56.5014219  50.1889753   1.3489573  57.4005079  50.3392839   1.0569237
  56.5070105  50.4300308   2.2752896  63.0233526  38.3297849  46.7810202
  63.6414719  37.5990224  46.7687893  62.5113297  38.2238340  45.9792471
  13.6696029  15.4605174  56.7277050  12.9342675  14.9558985  57.0753717
  13.9157522  16.0482669  57.4419785  24.1858459  80.0935841  10.7660270
  24.9188805  79.8510027  11.3317549  24.3418479  81.0136795  10.5531693
  80.9783459  11.9865346  63.4526873  80.1494598  11.5096450  63.4106731
  81.0050678  12.4923682  62.6404953   5.9443760  33.5550523  62.9327869
   5.8616561  32.6725936  62.5713205   5.0806665  33.9477134  62.8060770
  15.6174433  34.7005129  56.3961029  14.9826479  34.0669322  56.0616779
  15.3337586  34.8726773  57.2939444   9.1480595  52.9150200  53.5816765
   9.5847023  52.0632362  53.5880995   9.8615730  53.5503817  53.6404085
   8.9600569  28.9729857  64.9511909   8.5231239  28.1388855  65.1232243
   8.5642081  29.5834827  65.5731487  43.4381676  64.6897888   2.4059749
  43.1416893  65.3124809   1.7422083  44.3895817  64.7934151   2.4236205
   6.5692347  47.9265451  55.4578686   7.1595728  48.2316780  54.7689390
   6.8706030  48.3754778  56.2477207  34.8897147  80.8578014  10.2853811
  34.5617270  79.9591255  10.3177166  34.4134068  81.2606239   9.5593697
  23.3642745  17.4231255  45.7769775  22.7114844  16.7745435  46.0404873
  22.8697228  18.0698478  45.2735901  76.2621641  38.7123680  57.8698730
  75.7010651  37.9467678  57.7463531  76.3930702  39.0583134  56.9870234
  85.4881477  46.5790796  35.1774001  85.3158951  45.6662178  34.9466491
  85.9945774  46.5297222  35.9881544   1.4207995   6.4226186   6.0184294
   1.1518522   6.6050601   6.9187707   1.6651557   5.4971528   6.0243177
   4.1426373  44.2771959  69.0306234   4.5259255  44.5919991  69.8492956
   3.4964290  43.6259270  69.3035603  20.3784561  24.2692780  49.5938349
  19.4548047  24.1575742  49.8188257  20.4669976  23.8578796  48.7341022
   0.4767597  69.8502922  39.1522694  -0.2816838  70.3373146  38.8300800
   0.1107001  69.2198324  39.7725511   4.5393196  28.3621430  67.1946812
   3.5863775  28.3912325  67.2800446   4.7618562  29.1631699  66.7202663
  17.6502550  38.9879131  62.3186970  16.8890429  39.5215297  62.0905733
  18.0046117  38.7035918  61.4761829  78.5900974  34.0664387  46.7775106
  79.1455364  33.3368492  47.0521402  78.1188154  34.3205500  47.5709581
  55.9627771  55.0971365   7.4996442  56.3921070  55.9045410   7.7825004
  55.2679634  55.3893423   6.9096601  18.2603598  45.4466534  66.0991049
  18.3541584  45.5309105  67.0479631  17.4192035  45.0056839  65.9797955
  74.9414730  41.1624861  63.5311460  75.1520395  41.4062977  62.6297855
  74.6197796  40.2632380  63.4671021  76.7654324  68.1417990  33.7457943
  75.9720802  68.6699772  33.6572170  76.6456842  67.6656723  34.5674968
   2.2762848  29.4158292  56.3281965   2.9434043  29.8134661  56.8877220
   2.2976197  29.9348187  55.5241919   0.9179063   2.0293619  70.2233982
   1.0173833   1.7298749  69.3197155   1.6141030   2.6759487  70.3394508
  54.4832468  20.8877325  10.9034681  53.5989189  20.5895376  11.1162424
  55.0327539  20.1133966  11.0246229  26.7178988  60.6402969   4.3591502
  25.8173513  60.9115505   4.1812015  26.6337681  59.9410677   5.0074065
  74.3530607  53.2679939  61.1217356  74.0460157  52.5724792  61.7033005
  75.2993202  53.1343412  61.0672760  33.8026237  78.4372091   9.8739421
  32.8606081  78.6031866   9.9098539  33.9111304  77.8301811   9.1418368
  72.3654318  19.6588969   2.0901504  72.8029203  19.2048848   1.3699362
  72.5347376  19.1111112   2.8566343  83.4139252  32.1057367  61.0297394
  84.0114117  31.9755840  60.2933359  83.1643772  33.0282474  60.9755516
   7.1788317  43.7297058  31.0623598   7.8202534  43.0756617  30.7848048
   6.3317031  43.3007812  30.9414053  27.4550462  70.4779959   1.3541871
  26.9046235  70.5384731   0.5734131  27.9216337  69.6481705   1.2546124
   8.3668917  18.2132304  53.8798809   8.2225645  18.7199557  53.0807352
   8.4963632  18.8726580  54.5615149  14.5432627  60.4249191  53.3312416
  14.8461068  60.2118587  52.4485636  14.0734041  61.2526941  53.2299614
  14.6424758  51.5219069  61.0615110  14.2805874  51.1869574  60.2410984
  14.1596162  52.3324585  61.2230253  84.6661186  38.5076928  35.1966810
  83.7625408  38.4060669  34.8975897  84.9814892  39.2902255  34.7445583
  38.2257676  51.2345505  22.1232653  37.4469352  51.6628933  22.4784756
  38.0612946  51.1809731  21.1818242  80.9464359  34.4669509  60.0375843
  80.2416706  33.8201904  60.0727177  81.0979748  34.6055102  59.1026688
  79.0588045  27.4065495  65.5856943  78.9914846  28.3613348  65.5947304
  78.3325911  27.1204710  65.0316143  16.7133427  43.1989717  61.7944384
  16.5885115  43.7473631  61.0198927  17.6625979  43.0996656  61.8671322
  15.1533556   8.1591612  54.7671795  14.9687982   7.7104694  55.5923128
  14.9973309   9.0841937  54.9574518   9.4912463  30.7756114  36.5941310
   9.2378396  31.4446783  37.2300291   9.9012655  30.0886965  37.1197343
   8.4363914  38.3160138  25.4457188   8.2863826  38.7657619  24.6141815
   9.3406498  38.0068779  25.3910995  79.8433638  18.6584902  60.0090122
  79.1584682  18.5903156  59.3438053  80.5318260  19.1763151  59.5917559
  16.5357745  18.3770132  57.8053665  16.3269162  18.9932454  57.1033192
  17.4196136  18.6193204  58.0816746   9.7065270  46.8701792  63.0542564
   8.8353163  46.6766071  62.7082014   9.5739055  46.9652843  63.9974403
   2.3381042  33.2459855  46.3064766   2.6484504  32.4772167  46.7849255
   1.8926372  33.7758183  46.9675875  68.9207029  22.8479385  63.9003086
  68.5499144  23.0536270  63.0421495  69.2803907  23.6787295  64.2111826
  38.0439329  78.4766150   2.0552628  37.7151322  77.9114389   2.7543312
  38.1828117  79.3241739   2.4778588  29.2751384   7.9213160  34.0295362
  28.8285017   8.7572300  34.1636896  29.9252415   7.8818327  34.7309899
  53.8333559   7.6228344  12.9044151  54.4945955   7.8152740  12.2396159
  53.1024408   7.2472674  12.4135542  81.1906052  32.2637224  49.5744848
  81.3264942  31.5128875  48.9965487  80.2484035  32.4280572  49.5361376
  14.6964252  40.3812790  64.0287495  14.3043065  39.5212007  64.1795349
  15.4323804  40.4194021  64.6396065  13.5285580  49.3204832  40.3014135
  14.4059014  49.1313696  39.9686408  13.0599165  48.4891558  40.2272320
  46.6629553  67.4528408   8.7217075  46.1573172  67.7815247   7.9783827
  47.2311306  66.7802238   8.3462203  12.8857923  46.5896130  40.1770926
  12.9467356  46.1339998  39.3374896  12.0000648  46.4019060  40.4877186
  28.5065269  23.6112976  62.8305197  28.6321783  22.6806092  62.6454163
  29.2986488  23.8710093  63.3009672  28.0652618  54.1203642  47.9243040
  27.9377055  55.0318909  47.6614761  27.5884986  53.6127758  47.2675848
  25.4284120  68.2088995   7.3404723  26.2226391  67.9385900   6.8796390
  25.7143641  68.3618784   8.2410610  72.0368290  35.4314041  59.2509937
  71.2599087  35.9306693  59.5027065  72.7180910  35.7281423  59.8543692
   5.4563498  45.4081726  58.4187794   5.0687915  46.2816429  58.3632469
   5.1692653  44.9674797  57.6190281  44.6748972  65.9164810  10.3658283
  45.4447365  66.4302492  10.1216424  44.9419832  65.4450941  11.1549389
  76.2470007   1.3074203   0.2064471  76.9462967   0.7093994   0.4702371
  75.8289242   0.8737698  -0.5374570  11.1229980  37.6292562  54.8056841
  11.6587865  37.8914475  55.5542946  11.6621065  36.9923925  54.3366432
  71.6531229  37.5931811  54.5295906  71.8502378  37.3542094  53.6239052
  71.3616705  36.7764258  54.9348021   6.8854314  33.1479263  55.9110308
   6.3049531  33.0008674  55.1642704   6.5504253  32.5658441  56.5930748
  11.5673780  29.7129440  54.7368765  11.4496803  30.6368351  54.5159674
  11.5234494  29.2580938  53.8957930  17.7849269  55.8515835  50.4174995
  16.8595934  55.9400845  50.6458855  18.0830598  55.0909853  50.9163380
  79.5701981  29.8611021  31.7336106  79.2067242  29.5106030  32.5467968
  78.8140345  30.2174735  31.2672997  83.2127094  35.3807878  57.4367142
  83.0240822  35.7919598  58.2802725  82.4724865  34.7929335  57.2859526
  47.1194792  61.6169310   9.2622328  46.8217516  61.4816523  10.1618373
  47.9210711  62.1326256   9.3502247  77.4850512  37.1300960  63.5827637
  78.1558800  37.4917293  63.0035877  77.2004986  36.3265800  63.1473064
   0.2799413  59.7154474  63.4254789   0.9149721  59.9338627  64.1075802
   0.5946571  60.1774120  62.6484489  72.4916601  26.8746328  59.9870872
  71.9009304  27.3733091  59.4226456  72.9877424  26.3205194  59.3845177
  26.3227558  38.7440801  62.6163197  25.8175898  38.1484175  62.0629454
  26.1754632  39.6091294  62.2339249   4.3094841  53.5312271  51.1589479
   5.1580948  53.9151525  51.3796139   3.8828522  54.1911983  50.6124496
   8.1539023  52.2045183  43.1342268   8.0950850  51.3648558  43.5900164
   8.8326961  52.0709133  42.4726963  10.9483564  29.1367769  52.1638107
  11.2377310  29.2469001  51.2580681  10.3338945  28.4035516  52.1314716
  60.3432417  78.9685440  40.6807947  61.1735773  79.1112280  40.2264643
  60.4574776  78.1318045  41.1314058  79.8033285  74.5036888  51.6230297
  80.6357193  74.4327307  51.1557817  80.0489998  74.5266008  52.5478792
   6.4179051  44.5980549  34.7863793   5.7959276  45.0381899  34.2070198
   6.7713290  45.2984762  35.3347754  22.8067636  60.8593702   7.3072374
  22.4446034  61.6025209   7.7897274  22.0415354  60.4145050   6.9428855
  23.2192874  67.6569462   6.1626464  22.7248502  67.4887514   6.9648153
  24.1337395  67.6773500   6.4447683  21.5101099  53.0876827  45.2048111
  21.9099092  53.9536285  45.2856398  21.2056088  52.8810406  46.0884476
  13.6382210  24.4133735  66.9368362  14.1554749  25.2180624  66.9708300
  13.7503302  24.0942335  66.0413933  23.0729222  40.9342146  58.1818581
  23.3127046  40.8960390  59.1077518  23.4278536  41.7691803  57.8767538
  72.5689030  46.7567730  47.4277258  72.0913887  46.2281132  48.0670452
  73.4696245  46.7683411  47.7514553   5.2253991  49.8221302  64.7294188
   4.8439351  48.9529276  64.8527050   4.8270342  50.3579998  65.4152632
  69.1987848  76.4233923   4.7308671  68.6443901  76.3277531   5.5052924
  70.0902224  76.4604044   5.0775594  12.1017706  52.3197937  52.7769279
  13.0161715  52.3905325  52.5028849  12.0016479  52.9904222  53.4525490
  23.3244014  39.1472745  56.2468815  23.2578754  39.8403931  56.9036865
  24.2551184  38.9245510  56.2271357  39.7131419  78.5923767  19.5134628
  40.3005695  78.0601692  20.0500393  39.7905874  78.2221222  18.6341751
  68.3225012  59.1416216  60.6039000  67.8517962  58.5460186  61.1869335
  67.6883411  59.8293924  60.4013014  31.5775156  36.8599105  63.8224363
  31.1111927  36.7600536  64.6523762  31.0041142  37.4116182  63.2904005
  78.3966589  53.3846188  57.6227474  78.3258295  52.5475550  58.0815840
  77.5316477  53.5195637  57.2357464  85.0816727  31.8503428  58.7477732
  84.6393585  31.7489457  57.9049730  85.2269173  32.7928638  58.8301754
  83.8637161  79.9079514  60.6308365  84.0823650  80.0868893  61.5453863
  84.4184685  80.5063438  60.1304388  18.9296186  39.2302394  55.2624893
  18.4234166  38.4210229  55.1906490  18.4323406  39.8698735  54.7527695
   3.9420965  28.7947392  47.1225309   3.7067056  28.1258440  47.7654934
   3.6100605  28.4553933  46.2913704   1.9530244  13.1025517  62.7443361
   2.4976146  12.3483670  62.5188160   1.3478677  13.1897843  62.0078516
  57.4897003  36.9847465  55.7629967  57.0982933  37.4673414  55.0348949
  58.4327221  37.1034479  55.6496048  75.2427721  24.6152663  48.6529160
  75.3404808  25.3424621  49.2676258  76.1036110  24.5308781  48.2429600
  21.4257383  15.3920949  45.6494141  21.3122511  14.8085129  46.3996029
  20.6958365  15.1793134  45.0678682  65.7395124  15.9377015   6.1037385
  65.6940842  15.9092414   5.1480412  65.9734392  16.8436766   6.3055277
  82.9771423  15.7879555  63.9832115  82.6784039  15.0066853  64.4486237
  82.2423649  16.3984215  64.0437508   8.5191441  18.9621782  60.2052402
   9.3027663  18.8297868  60.7387590   8.4696770  18.1809735  59.6543264
  74.6065521  23.4058881  62.1986866  73.8849974  23.7650061  62.7150440
  74.9304914  24.1493964  61.6902637  11.6673756  41.8372250  50.3209782
  10.7142103  41.7773628  50.3851891  11.9503510  40.9452772  50.1195240
   6.8841565  26.6701722  42.3870707   6.4557683  26.4017725  41.5742493
   6.7335677  25.9414244  42.9891348  12.1992147  16.1178339  46.2324476
  11.8000507  16.0220993  47.0971632  11.7136049  15.5091321  45.6757641
  28.9547229  44.8715258  39.1390848  29.1260552  45.8123302  39.1811204
  28.0237436  44.7881651  39.3453932  37.8747821  68.4028578  13.1600881
  38.3284235  67.5666523  13.0542362  37.4773192  68.3513641  14.0293431
  82.8245640  71.7454052  21.8949342  82.7501392  72.5963736  22.3268390
  82.2709084  71.8219709  21.1178660  13.0111611  42.3686171  31.2484884
  12.8917217  43.3183146  31.2419009  12.3342824  42.0379877  30.6579399
  31.3797379  75.4126930  10.1250136  31.4532161  75.1624584  11.0459995
  30.9998775  76.2910652  10.1450467  24.9581051  33.2703257  53.7071276
  25.2466464  33.1596756  54.6130705  25.0524211  32.4009609  53.3178425
  40.3109026  75.7486248  14.5116127  39.5907784  76.3373899  14.2857504
  39.8918796  75.0260782  14.9791348  81.6413784  43.6004543  50.8446312
  80.9120941  43.8750315  50.2887774  82.1327686  42.9802465  50.3060102
  36.7276168  73.8156271   5.8246303  37.0659471  72.9838228   5.4931688
  37.2590280  73.9986420   6.5994453  66.6106939  31.8262100  48.1674290
  66.9533157  32.3037767  48.9229250  65.6640053  31.9618869  48.2075405
   7.5150752  76.2589121  58.7431669   7.3563844  75.5982256  58.0689669
   7.3567855  75.8013391  59.5688772  19.2604792  13.6614311  50.1870632
  19.9905372  13.9811337  50.7171965  19.6171176  12.9067242  49.7185993
  81.9465256  27.9908466  62.5855398  81.0345650  28.0670667  62.3049068
  82.2412682  28.8954854  62.6903439  80.9919643  33.2986236  69.0544605
  80.9117985  32.3683500  69.2651653  80.6092644  33.7486362  69.8076296
  25.9980464  56.5631294   2.6481092  25.6744003  55.7294846   2.3067620
  26.8867993  56.6355896   2.3001155   4.0905550  35.2300310  35.8037686
   3.3315569  35.7844424  35.6227064   3.7725568  34.5886922  36.4392138
  15.4549193  62.0759106  58.7942076  15.5023718  61.4876795  58.0405760
  16.3672972  62.2117472  59.0498400   7.1310043  29.3391585  40.6865883
   7.4246395  29.1658735  41.5810061   6.9241834  30.2737188  40.6792212
  79.4212151  40.2458000  67.6528025  79.3079329  40.1049566  66.7128229
  78.7345791  40.8706713  67.8858280  13.9206707  46.0917521  44.9922657
  14.1339827  45.6919527  44.1491222  12.9932559  46.3180876  44.9222183
  14.0479267  23.7841749  69.5971775  13.6396873  23.9135671  68.7411261
  14.0275037  24.6496534  70.0055456  74.4114351  18.4151554  59.9688387
  74.8919535  18.0347824  60.7041311  73.5010052  18.4374344  60.2635431
  28.2825780  15.4245567  49.9596882  27.6956081  14.9777663  50.5696678
  27.7877140  16.1904824  49.6686554  22.5499511  21.0693955  53.6044121
  22.6891732  21.9331193  53.2160425  23.2433629  20.9865451  54.2590475
  13.2582259  26.8106055  63.9594412  13.0128992  27.2658777  64.7649050
  13.8063645  27.4374890  63.4874296  77.8522062  35.0324082  65.5841684
  78.4065866  35.3496218  66.2970972  77.4216509  35.8183146  65.2477121
   3.2195705  48.9085007  39.9186563   2.7590519  49.7018671  40.1920128
   3.9241233  48.8079453  40.5587578  76.3240576  46.3786983  65.2587175
  77.1041250  46.9153690  65.1183033  76.1353874  46.0009813  64.3996716
  24.2551374  53.5614204   7.9175526  24.8382759  53.7305260   7.1775633
  23.5964012  52.9597282   7.5707597  45.7395172  52.1217251  12.3206210
  45.4379034  51.3390446  11.8594599  45.0000048  52.7276134  12.2731054
   4.0510461  53.2198334  63.1217289   4.2506555  52.3890448  63.5532141
   3.3970529  53.6318779  63.6863041  11.8525398   5.7254797  52.4236584
  12.1743608   4.8321435  52.5445461  11.2462175   5.6638086  51.6855526
  26.3724375  16.8347979  48.4069061  26.2215590  17.4218154  47.6660442
  26.3135886  15.9560192  48.0320501  35.2047014  79.9552107   5.9313017
  35.6656361  79.1710281   6.2293416  34.2774272  79.7256899   5.9922600
  32.0310068  65.6104088  17.2196460  32.7905989  65.9693909  16.7609704
  31.3257337  66.2314272  17.0375443  27.7562046  74.2791748   2.6373509
  28.3776450  73.6476326   2.2751358  28.2558489  74.7521591   3.3028382
   9.9123776  14.6238863  39.2931485  10.3256345  15.2434111  38.6917853
   9.5534390  13.9420366  38.7252808  12.9271388  34.7714734  36.2410450
  12.4684250  35.6105375  36.1987948  13.2614887  34.6363807  35.3543711
  12.7339864  45.2955389  55.7083082  12.1287823  45.9837866  55.4321289
  13.5594022  45.7527781  55.8691072  26.4198232  19.4744098  32.9964662
  26.1124110  20.1113582  33.6414671  27.3734045  19.4924915  33.0776501
  78.1676817  23.2658482  49.7646761  78.8350916  22.7289152  49.3374729
  77.6461744  22.6423836  50.2701998  79.3185902  30.9093380  53.2163382
  79.8737907  31.1572146  53.9556265  79.3651867  31.6570497  52.6205301
  14.5589435  34.2300773  59.0243626  13.6607158  34.5606565  59.0359497
  14.4975781  33.3563018  59.4103432  69.6140289   7.9892504   1.6057463
  70.3310394   8.4161353   2.0746729  69.9570084   7.1247518   1.3793921
  64.9852514  15.7852507  34.1382456  65.8113289  16.0306859  34.5548892
  65.2439547  15.4070818  33.2978320  23.3654261   7.3189056  52.5859165
  23.1317258   7.4765009  53.5006762  23.2988596   8.1785381  52.1701860
   3.1903383  39.5812988  45.1882410   3.6637029  40.2616310  44.7093868
   3.8135237  38.8578415  45.2551937   2.4164800  35.2328706  54.2447662
   1.7682035  35.2002954  53.5412693   3.2597306  35.2571297  53.7924719
  24.2942214  59.5487928  58.2506704  24.7050142  58.7049770  58.4389639
  23.7074614  59.3708181  57.5156403  52.6238537  73.0734062   0.7690486
  53.0769491  72.8331566  -0.0391674  52.8225327  74.0021753   0.8880063
  50.8800316  75.7291985   1.6507138  51.1096096  75.4350710   2.5321978
  51.7058325  76.0392046   1.2789933  78.6778927   2.4002934  11.6446722
  78.7995815   3.3127606  11.3823235  77.8609467   2.1362990  11.2214255
  69.7531080  51.3661671  60.9684753  70.2651358  50.7318830  61.4702177
  68.8724279  50.9924126  60.9377861  18.3777213  61.0948038  65.1469469
  17.8939605  61.4269352  65.9031868  17.7052796  60.7194090  64.5784998
   7.2617835  43.1492853  59.8314714   6.5733463  42.9776049  59.1889668
   7.5545561  42.2805262  60.1067305  76.4274359  21.6008186   2.9744315
  75.8000374  22.0608592   3.5320756  77.2556639  22.0589519   3.1171942
  23.6214685  42.2089911  63.4784651  23.6216712  41.4799786  64.0987682
  24.1488624  42.8853035  63.9035368  11.6391134  21.7010713  54.3715048
  11.6568792  22.5848746  54.0043402  12.1821868  21.1837077  53.7768316
  10.0110674  50.6311607  56.9993782  10.5494165  49.9633932  57.4242353
  10.3557730  50.6852818  56.1080408  36.9285250  72.6899672  50.3495026
  37.1871471  72.7216291  51.2705564  37.0486188  73.5863829  50.0360537
  33.4513307  53.7726879  54.9431181  33.3507562  54.4722652  54.2975903
  32.6101565  53.3159781  54.9343777  17.8651571  57.1086645  64.4141245
  17.8576517  56.3668776  65.0190496  17.0169485  57.0662260  63.9725685
  43.1925249  60.0435781  52.4903727  43.1835651  60.9951210  52.5939417
  44.0518665  59.8515892  52.1150017   5.3683478  51.7042398  53.6405706
   5.7376552  52.3260164  53.0134821   5.5163270  52.1094227  54.4950628
  70.1074362  31.2265396  31.0896945  70.3986359  32.0282173  30.6552434
  70.8749580  30.9252429  31.5758681   5.5327594  50.0894165  50.0035858
   5.7771999  49.1997814  50.2586031   4.5783192  50.1051950  50.0744820
  64.7753572   0.8671180   2.9542023  65.3061342   1.5805638   2.5999433
  65.3258419   0.4719109   3.6302274  80.0710964  40.2412176  56.4341354
  80.8590221  40.2545881  55.8907890  80.1543331  41.0118580  56.9957542
  18.4918845   2.7110827   3.3589974  17.5462353   2.5654334   3.3866438
  18.8550138   2.0363693   3.9326966  17.2954607  67.6867676  60.0368738
  16.4748311  67.4510241  59.6041775  17.0703411  68.4395838  60.5835199
   9.3434501  28.1124067  42.8132534   8.5910845  27.6310539  43.1574583
   9.4290739  27.8086567  41.9095755  11.1610889  42.5843763  67.2082090
  11.2601244  42.4179602  68.1456184  11.3641942  43.5143185  67.1072769
  79.6920633  53.4253311  21.4563084  80.4709911  53.9209700  21.7089987
  80.0337601  52.6685238  20.9801698  73.6471033  32.8457451  56.1517954
  73.8115501  32.3131037  55.3736639  74.1741228  33.6336017  56.0185051
   1.9500971  45.4038191  54.2611361   2.6950499  45.9950066  54.1526270
   1.3974547  45.8323669  54.9147177  12.3453271  57.8930998  32.2243762
  12.3058712  58.7660885  32.6149726  11.4302528  57.6221037  32.1506667
   7.6421964  40.2604294  32.0905375   8.0869216  39.6630955  31.4891696
   6.9639724  39.7248864  32.5021625  81.4234638  60.4391575  44.7221851
  81.0049057  61.1583567  44.2491102  82.3038673  60.3879738  44.3500376
  21.1187148  43.1720829  55.4662180  21.8250227  43.1146908  56.1097002
  21.4847684  43.6978769  54.7550392  53.2928991   5.8721358   4.3645030
  52.5439787   6.3738167   4.6864831  52.9656458   4.9758962   4.2877346
  84.7140980  47.0624352  56.8673468  84.8315525  47.6246023  57.6331139
  85.2484798  46.2902594  57.0528698  35.8126354  73.4757280  57.3604012
  35.7734585  74.2177010  57.9638672  36.5286803  73.6907053  56.7626572
  26.7900109  49.2027187  60.2781296  26.6721153  48.6738443  59.4890594
  27.3676968  48.6790419  60.8333540  71.3163185  30.1943970  19.0756905
  71.8097591  30.2490520  19.8940814  70.6051779  30.8261991  19.1821337
  13.8695645   5.1986772  14.9481952  13.5947824   4.2818412  14.9363935
  13.8346469   5.4473090  15.8718812   2.4650142  21.2330651  10.3142405
   2.8597569  22.0878458  10.1417232   1.9071935  21.0689998   9.5538783
  17.5798881  50.6283808  58.6615801  17.8358364  49.8333549  58.1939745
  18.1306875  50.6336403  59.4444132  75.4415941  43.0856514  57.1518040
  74.8614740  43.7873411  56.8562984  74.9069309  42.5717783  57.7570295
  19.8905766  48.3690929  55.1229286  20.7827544  48.5723543  55.4038811
  19.9405992  47.4699020  54.7986078  37.6604581  68.6434269   6.6933209
  37.1010971  68.2431841   7.3590177  38.3170557  69.1290379   7.1926123
  22.4359226  28.3677554  53.7594795  21.6411614  28.8451385  53.9975834
  23.1512570  28.9412546  54.0344810   4.8212931  46.1115789  54.4087076
   5.2715921  46.4798212  55.1688766   5.1513821  46.6177607  53.6663771
  17.0830262  48.0122471  54.6111107  16.7029059  47.1979237  54.9406719
  17.9141939  48.0949974  55.0786018  59.9014902   6.2131822  66.6016817
  59.9175215   5.9730595  67.5281334  60.0900555   7.1515954  66.5941811
  31.7420769  58.3666468  52.8335619  31.1628413  58.6528349  53.5398245
  32.5830650  58.7785769  53.0317545  13.4522474  26.3898802  44.2215919
  12.6192486  26.7104220  44.5674181  13.4269619  26.6128731  43.2910728
  56.4113665  23.4796691   6.0956323  56.7437172  23.9399099   5.3249478
  57.0226002  22.7542114   6.2234616   4.4755459  38.7574339  63.5135555
   5.2811986  38.4179473  63.9033031   4.7094539  38.9439917  62.6043177
  18.5309029  36.2093115  60.2671051  18.7825835  35.5231762  59.6489573
  18.0546486  36.8473935  59.7358227   1.4408290  69.9290276  47.2826433
   2.3137540  69.5400620  47.2284222   1.4602727  70.6498289  46.6531229
   1.7055905  31.5878105  20.2254868   2.4846160  32.1004844  20.0098109
   1.9837452  31.0204268  20.9444714  14.5596969  63.3067226  50.8197117
  14.7041750  64.2441368  50.6908274  15.4239750  62.9592323  51.0399437
  19.8605239  65.1121569  25.8653855  20.6968331  65.3969193  26.2338042
  19.2739058  65.8565807  25.9993386  15.1500106  42.0816612  48.6467123
  14.8463094  41.8765354  49.5309782  15.2322173  43.0352736  48.6368895
  14.1449142  42.2194719  51.1645699  13.1981075  42.1233225  51.0618830
  14.2458677  42.9091883  51.8205643  39.2602587  59.1870832  57.7884436
  39.7662234  58.5421896  57.2941303  39.8656440  59.9167776  57.9199219
   0.5374284  26.7181182   9.9054492  -0.3418339  27.0950270   9.8727298
   0.4981077  26.0799623  10.6177974  16.3017166  23.5772133  39.6012163
  17.0040929  24.1978407  39.7954369  16.2487519  23.5668254  38.6455393
   1.1758070  46.9715595  40.0692701   1.5577580  47.8422356  40.1800108
   0.5850364  46.8724489  40.8158588  77.7277613  42.5514603  65.7497263
  78.4950161  43.0205154  66.0776567  77.6420879  42.8384304  64.8405886
  69.0293550  15.1517177  19.4193542  68.6025286  15.9921026  19.2526078
  68.6118221  14.8249817  20.2163124  50.2476120   8.4355557   5.0166684
  50.6934643   9.0633142   4.4480151  49.3421507   8.7441367   5.0505602
   4.8290777   9.4062823   1.6616385   5.7729101   9.2676127   1.5830101
   4.5133334   9.4227952   0.7581647  25.2417850  77.1125793   8.6685008
  25.3737187  77.8070116   9.3139386  24.3537021  76.7965555   8.8348466
   8.1144589  50.0987101  60.0136375   8.9900684  50.0589132  60.3982878
   7.5295782  49.8267841  60.7208872  23.7849784  55.6302643  51.4993858
  22.8711963  55.6932974  51.2214279  23.9392686  54.6913958  51.6040468
  59.2150640  75.7196569   9.7546828  59.7145271  76.4139700   9.3249226
  59.2158508  75.9620571  10.6806815  17.2937655  57.3748589  60.6665945
  17.7685833  57.3596001  59.8356009  17.9795980  57.3767662  61.3343191
  28.2202649  56.1744356  57.7371311  28.8456273  56.8158150  58.0744505
  27.5945354  56.0516405  58.4510040  84.2689514  54.4882011  37.5984526
  83.4913731  54.4296217  38.1535816  84.3461514  53.6203861  37.2020149
  62.5321436  76.4213133   2.9051751  62.3208189  75.4930353   3.0045548
  62.6717997  76.7322540   3.7996274  12.7450693  41.1289310  33.9155459
  13.5801494  40.6618214  33.8893771  12.6163232  41.4397717  33.0194259
  83.2255363  63.1556559  41.9982767  83.4096813  62.9158211  42.9064655
  83.1933403  64.1122913  42.0049953  74.8449564  32.3833179  66.8053007
  74.7969723  32.8409672  65.9659624  75.5276680  31.7241907  66.6800213
  11.2296951  50.8054113  44.4340277  11.5604055  50.6559324  45.3197575
  10.3145552  51.0565424  44.5592642  23.7075830  40.6606483  60.8400917
  23.7850356  41.3039112  61.5446806  23.0934525  40.0085688  61.1775398
  39.3300366  52.9223013  68.0143881  38.4253979  52.7607441  67.7465105
  39.2799234  53.0515766  68.9614964  40.2594137   9.2666864  65.3703070
  41.1281157   9.1000426  65.7361174  40.0833654   8.5068083  64.8154879
  71.5201187  49.0154171  52.2431755  72.4487543  49.2363644  52.3142385
  71.5063190  48.0617285  52.1624470  26.1103654  64.9638462  54.4612122
  26.3212299  64.0420628  54.6098185  25.1537132  64.9950743  54.4696045
  51.7538166  17.8434300   5.0624758  52.2008801  17.5931442   4.2539439
  52.4587345  18.1051505   5.6547809  12.9307675  24.0870142  53.5262823
  13.5459948  24.4833827  52.9093361  13.4015846  23.3341408  53.8836956
  13.1782198  34.2373300  41.3056946  12.9609001  34.1358972  40.3790283
  12.5447738  34.8766398  41.6316748  37.5289726  73.7657690  13.4832060
  37.7655196  74.5352077  12.9652798  37.8686380  73.0252028  12.9807949
  74.3432093  78.4050274  15.5417871  74.2705488  77.4599648  15.4083037
  75.2379227  78.5343838  15.8564067  10.0178146  61.0044956  53.7840891
   9.1534507  60.9848261  54.1948462  10.2215147  60.0854540  53.6105919
  23.9239430  51.7403698  47.8244400  24.5936203  51.2583685  48.3096600
  23.9898491  51.4068222  46.9296598   0.1621599  40.2840996  48.6204147
  -0.3526871  41.0578632  48.3913755   0.5827007  40.5129719  49.4492674
  33.0881453  63.6960793  45.6165886  33.5471368  63.6595154  44.7774076
  33.7120056  63.3355665  46.2467146   0.5133401  63.0013800  48.7248755
   1.0971211  63.6991167  49.0225315   0.2516194  63.2677650  47.8435278
  21.9564724  75.7786989   5.6762719  21.4997816  76.3949919   5.1036906
  22.8712535  75.8265877   5.3985810  30.3204274   6.2654310  51.6387844
  30.1746559   5.7964861  50.8171558  29.4964242   6.1726707  52.1169519
  54.8074102  18.9569998  19.9332261  54.7512960  18.1122541  20.3798652
  54.0043020  19.0076768  19.4148767  20.4338121  60.6415987  55.8538723
  19.8787653  59.8835659  55.6707239  20.0428510  61.3528967  55.3464890
  29.4795704  67.5660801  57.8779268  29.3627715  68.5125971  57.7961302
  28.7368560  67.1913004  57.4044895  26.2058902  53.3168745  52.6873350
  26.8686843  52.6266432  52.7101231  25.8177352  53.2475042  51.8151236
  86.0126400  67.8629875  55.7352400  85.3752995  67.3719501  55.2166748
  85.5748367  68.0133343  56.5730667  20.6456447  48.9015150  48.0174303
  20.6720018  49.0514660  47.0724154  20.9378028  47.9963064  48.1245422
  28.0964279  40.2071238  57.1406555  28.9381099  40.0452662  56.7145109
  28.2955575  40.1942587  58.0768299  34.9068999  65.0916958  55.3423882
  35.6511521  65.0755692  54.7406721  35.2935910  64.9449539  56.2056208
  61.4528656  10.3382289   1.3333267  61.0007286   9.6508110   1.8224688
  61.6643476  11.0006833   1.9910961  26.6533804  51.2754440  48.4286213
  26.9903779  50.3831244  48.5088110  27.1830511  51.6701555  47.7358866
   5.5097306  36.0704017  66.7994595   5.4999518  36.7596769  67.4635649
   5.7699054  36.5174723  65.9940577   8.6650056  45.2595329  49.1368484
   8.2596058  44.8771334  48.3586121   9.5698678  44.9482679  49.1130209
  10.5902123  60.0808525  68.9509106  10.9004390  59.1991568  69.1573143
  11.3216388  60.4899693  68.4884453  60.9669781  46.5247726  43.2193136
  61.0307360  46.9507217  44.0741444  60.2755737  47.0047998  42.7635002
  11.2594783  69.1584063  40.2789831  11.1630225  70.1050186  40.3831434
  11.2810814  69.0226507  39.3317056  23.8123918  37.4075294  58.5322762
  22.8850865  37.6366758  58.5941362  24.0844464  37.7390003  57.6765013
  16.1040747  47.6492882  58.0200005  15.5246305  47.6975965  58.7803555
  16.9815075  47.5628042  58.3926439  83.1336403  18.2553625   9.3185079
  82.7564526  19.1110349   9.1140896  83.9667702  18.4565067   9.7447431
  47.6169825  13.3563983   4.4421443  47.3917437  12.4800837   4.7545090
  47.0947313  13.9460969   4.9859628  21.8973255  65.9839201  68.2680511
  22.3818493  65.2439594  68.6340094  21.1711287  66.1192894  68.8767767
  79.8959446  52.2072935  47.3347187  79.5641899  51.6540194  46.6275740
  80.6657314  51.7418909  47.6619244  11.7202628  48.7097740  67.6797342
  11.9742715  49.4961166  67.1966410  10.9059870  48.4259844  67.2642231
  22.7805161  65.9441423  57.0397997  23.5300231  65.5750418  57.5069571
  22.0195317  65.5149269  57.4308395  22.6690817  76.4693499  57.0009661
  21.8958068  76.0688114  56.6036654  23.0691314  75.7643843  57.5100946
  18.2559872  58.7477732  44.2233658  17.6185524  58.2684565  43.6940622
  17.9380751  59.6506357  44.2217636  51.7289448  49.1275406  54.2146206
  52.5052691  49.4691038  53.7708950  51.8572378  49.3595839  55.1343679
  25.4160285  56.2945175   5.3779668  24.5427299  56.5553093   5.6704885
  25.3266096  56.1767626   4.4322553  39.3483925  65.5879641  17.1832120
  38.9546895  64.7347975  17.3657846  40.2910519  65.4361582  17.2508645
  26.0146070  38.4771442  56.3444281  26.2999654  38.1412005  55.4947567
  26.7486811  39.0099883  56.6501093  84.7378445  28.7028289  25.3871250
  84.1901684  29.0312147  26.1001801  85.2858353  28.0324626  25.7952261
  19.2743993  35.7089567  54.7679996  19.9040091  36.2963820  54.3499613
  18.9790225  35.1332760  54.0626049  23.8152337  60.2421284  41.3445950
  23.1548643  60.1927233  42.0357513  24.4385910  59.5480490  41.5588665
  12.5816727  53.1374550  68.0596018  11.6876996  53.1869030  67.7210760
  12.6945746  52.2190332  68.3045292  81.0947800  29.0011787  25.2900124
  81.0830593  28.1671190  25.7595205  81.9642258  29.0394902  24.8914862
  22.4908066  52.2906256  56.0091639  22.4880695  52.6167393  56.9090939
  23.2560492  52.7021837  55.6075954  29.2416620  72.5472546  31.1024499
  29.8074746  72.0968962  31.7295575  29.2703915  71.9997978  30.3177857
  50.5143881   4.7245675   2.1171257  49.6917295   4.6751636   1.6302679
  50.2779198   4.4815239   3.0122489  85.4098892  65.4184198  53.0046177
  84.6340561  65.6206369  52.4817133  86.1451244  65.7063007  52.4635172
  63.0245924   3.7608805  62.6550722  62.3577404   3.9597964  63.3123207
  62.5505972   3.2946879  61.9664288  31.6549706  49.7283077  60.7153988
  31.7285013  48.9451361  61.2608051  31.4433384  50.4299641  61.3311291
  63.0427742   2.6970953  57.2833157  62.5363779   2.7149984  58.0953979
  63.6984587   3.3854997  57.3947001  49.6828270   1.9660103  41.4449549
  50.1872158   1.3276482  40.9406519  49.1312170   2.4022715  40.7956219
   1.9633630  77.0219898  63.7060547   1.4808722  76.7743778  64.4948006
   2.1077739  76.1959934  63.2444239  30.3867817  78.0924702   9.8661792
  29.4415498  78.1160545  10.0152063  30.5580473  78.8416195   9.2955023
  57.8042984  36.0846400   3.2257682  58.7585068  36.1556363   3.1995773
  57.5867033  36.1235619   4.1570944  32.1174550  67.1060228  58.5987711
  32.3889089  66.9654989  57.6916885  31.1610103  67.1195602  58.5631943
   6.4152437  56.4926004  54.1245461   6.4364207  57.1820593  53.4608984
   5.4927331  56.2438202  54.1821051  45.8458138  79.7446918  10.0012219
  45.5031443  79.0194416   9.4789040  45.6516647  79.5007610  10.9062290
  21.6209960  18.4724092  54.0022326  21.2158394  18.4587932  53.1351137
  22.1646833  19.2602122  54.0002203  28.9107704  47.8481674  61.5790510
  28.4957147  47.3876095  62.3083258  29.8418999  47.6438570  61.6655874
  86.2001038  66.5135956  37.0105529  85.3850460  66.9419098  37.2721767
  85.9567928  65.5977154  36.8756652  10.0791883  46.7577982  56.2163925
  10.0407195  47.3511744  56.9664955   9.5776594  45.9905052  56.4920092
  83.9323616  47.0946884  49.8355341  84.5409966  46.4264679  50.1506042
  84.0932178  47.8505850  50.4003143  83.6635971  25.6660843   3.2305413
  83.7537575  26.4025903   2.6258436  82.9697418  25.9343076   3.8329107
  17.4553585  44.9728966  28.4774733  17.5916481  45.5664921  27.7390265
  16.5114808  44.8139811  28.4859872  20.6903577  57.7772331  58.5455275
  20.2798271  58.6226273  58.7272072  19.9789250  57.2331476  58.2077932
  74.5863771  46.5777540  58.2835150  74.3192959  46.3818693  57.3854446
  75.5428457  46.5480042  58.2608366  20.6336880  35.4044795  62.0841646
  20.3792262  34.4875073  62.1873188  19.8606551  35.8268905  61.7096996
  24.7530985  41.0367298  68.5835028  24.9534082  40.1219988  68.7819290
  24.2897391  41.3540411  69.3586445  21.7806315  60.8585358  31.3621712
  22.4094129  60.3002882  30.9047604  21.2080073  60.2459860  31.8238163
  17.8849721  73.7902594  46.8706036  18.7616813  74.1590214  46.7627716
  17.9367769  73.2821083  47.6801300  28.8967657  44.6890306  67.0874834
  29.2094088  45.4489040  67.5784826  28.3043480  44.2409563  67.6912260
  31.9043398  52.0561266  17.0242751  31.6753316  51.2677860  16.5320289
  31.2656331  52.0877600  17.7365136  74.0733004   9.7954786   3.2988587
  74.8068380   9.1887319   3.3989036  74.1687918  10.4089105   4.0274286
  81.5064430  38.5307312  39.6825552  82.4326515  38.4120226  39.4721365
  81.4441109  38.3230686  40.6148767  77.6157761  71.8581104  44.7465420
  78.1724644  71.9374895  45.5211592  77.8209448  70.9930849  44.3917656
   5.5661559  42.0417356  41.1335468   4.6719217  42.2080088  41.4317560
   5.7742798  42.7887201  40.5723572  22.3749542  66.3364553  65.6671429
  22.1119452  66.4704800  66.5776920  22.1570301  65.4219627  65.4870176
   4.5173615  24.0872169  59.6656799   3.7494195  23.7975955  60.1582384
   5.2621895  23.8188076  60.2036572  73.9646387  42.2864389  40.4371786
  73.8590002  43.2257986  40.5877733  73.2665491  41.8813705  40.9517908
  65.0141478   5.4322398  15.2698958  65.2892208   5.8469057  16.0875881
  64.6081591   6.1388332  14.7677696   3.7604409  60.4971790  41.8307304
   3.7865391  59.5409060  41.8637037   2.8549394  60.7196712  42.0470572
  83.5302448  70.9879160  63.7337494  83.7349033  70.4462337  64.4959354
  83.5681248  71.8864965  64.0614080  13.8540316  31.0218215  50.6645203
  14.0833271  31.0865617  51.5915966  14.6661210  31.2285900  50.2019310
  18.9761269  51.9788551  39.5130467  18.9924574  51.3289785  40.2156353
  19.7464669  51.7768669  38.9820004  14.7610855  38.1525707  35.7922029
  14.7423744  39.0995264  35.9306049  15.2856672  38.0366182  34.9999905
  16.4602959  69.5618200  50.4449749  17.3834002  69.7239447  50.6394672
  16.1423302  70.3898478  50.0851154  13.9258528  54.1513824  61.0710764
  13.1660700  54.4518995  61.5697289  14.3130291  54.9525928  60.7183933
  12.7016842  47.8281021  48.5903502  12.6213670  46.8867493  48.4366274
  13.6376560  47.9684067  48.7335396  80.9229755  38.6837816  61.6398287
  80.1580620  39.2121792  61.8677235  80.5950165  37.7847981  61.6174555
  14.6205485  57.6200771  68.3859873  15.5078268  57.8327942  68.0966425
  14.4750369  56.7265081  68.0751848  79.7507858  20.6421971  10.4018068
  79.4645691  21.5474844  10.5233192  78.9856577  20.1159048  10.6338120
  80.3507233   6.9908845  12.5827193  79.5211411   6.7671961  12.1608281
  80.9938240   6.9672161  11.8741322  19.4728279  55.9817934  69.7511482
  19.7296739  56.4038563  70.5709791  19.8297524  56.5489864  69.0676832
  81.1488056  22.8389502   3.6617315  81.9017887  22.6938939   3.0888325
  80.6876755  22.0001745   3.6682057  12.5053990  28.1338882   3.6391196
  12.8334010  28.3801842   4.5039803  11.9882298  28.8877583   3.3554864
   3.0252129  65.0310755  64.2698717   2.4112873  65.2864456  64.9584341
   3.0262706  65.7715082  63.6632538  74.4406366  35.7812023   9.3227863
  73.6179733  36.0162330   8.8935733  74.3229628  34.8673248   9.5820421
  34.1182160  57.6492405  67.9436255  34.9144363  57.8758240  68.4241724
  33.6952925  56.9806910  68.4825230  40.6627655  67.4373150  37.5830913
  40.2488136  66.9376469  36.8793821  41.4298058  67.8374910  37.1735334
  35.1469827  68.2729292  55.0322485  35.5928993  68.0971193  55.8607912
  34.4584966  68.8981628  55.2587605  20.9959745  37.6792145  14.7081971
  20.7346296  37.7906609  13.7941337  21.6497922  36.9804287  14.6868765
  72.8710318  28.2394910   7.3204428  72.2623539  28.8996100   6.9887978
  73.5182428  28.1383228   6.6225100  27.3203230   3.1917185  54.2238188
  26.4828682   3.3281639  54.6668577  27.3438525   2.2526208  54.0400410
  52.2576714   6.3892835  43.2252598  52.5985384   5.5861962  43.6190796
  51.3485146   6.1826092  43.0085659  10.6257415  76.8271208  53.4919405
  10.4966843  77.1871567  54.3694067   9.7478420  76.8036127  53.1111860
  53.8558865  73.4910917  58.1096935  53.1326008  73.4075260  58.7310696
  54.6290541  73.6227846  58.6584187  83.5326767  67.4642706  37.3920774
  82.9559517  68.1857586  37.1409225  83.1571770  66.6963863  36.9612765
  24.7647500  47.7378416  39.2936301  24.6120381  48.6292028  38.9799595
  24.0123963  47.2394609  38.9745545  22.8579164  62.9733610  56.6504526
  23.7897444  63.1922817  56.6512394  22.6815248  62.6801682  55.7564974
  17.5222766  36.6674066  63.9968252  17.1128535  35.9901118  63.4584236
  17.4092877  37.4739766  63.4939241  59.4448090   9.4348466  37.9031730
  60.1060724   9.6884918  37.2592616  59.8344135   8.6940068  38.3674955
  30.1622248  48.4416199  54.1590738  31.0311413  48.7865543  53.9535570
  29.7405195  48.3315134  53.3068562  44.9210215  44.4117594  59.3072128
  45.7474041  44.2013311  59.7420073  44.2550850  44.2806578  59.9821758
   5.7284081  59.1186094  56.2133455   6.2889636  59.1988373  55.4416132
   5.6772536  60.0071573  56.5656328  32.1739602  75.1660109  68.8127708
  32.8402185  75.2489614  68.1305313  31.5127826  74.5874882  68.4327841
  74.8594379  15.2696538  57.1761370  74.2099047  14.8155034  57.7128744
  74.9530411  14.7205794  56.3976860  15.3928626  70.7096004  55.7266617
  15.1266026  70.0891829  55.0481176  16.0507202  70.2379990  56.2375879
  24.7044539  63.6548758  60.0669670  23.7691712  63.6662102  60.2703094
  25.1090384  63.2313108  60.8240271  23.4836340  66.8684053  46.2115145
  23.3800769  67.3209143  47.0486212  22.5935721  66.6201496  45.9617376
  47.3892546   8.6256969  29.5743728  47.9418612   9.4038039  29.6479011
  46.4942789   8.9640474  29.6020746  43.6574697  72.1952057  59.8520088
  43.4323025  72.0651293  58.9308071  43.3360004  71.4075089  60.2906799
  23.7105727  58.1663322   3.9426205  23.9840913  58.6854458   4.6988890
  24.5040464  57.7067900   3.6679345   8.0391699  71.3890743  48.4370422
   7.5722283  71.1895466  49.2484522   7.7614200  70.7060242  47.8266954
  46.6744375  64.5263052  67.0961142  46.3206291  64.8361635  66.2624216
  47.1523809  63.7279510  66.8715525  58.5929012  12.0512152  42.5813580
  59.2845964  11.9873369  41.9227934  58.5809088  11.1906719  43.0003500
  80.4103374   2.6345757  41.9022417  81.0420704   3.1767768  41.4298391
  79.5567274   2.9319465  41.5873528  68.7677383  11.7985535   1.5188095
  67.8638935  12.1103132   1.5645972  68.7651062  11.1603189   0.8054504
  50.0009537  71.0458279  49.2185020  49.4938564  70.6320572  49.9169827
  50.5482674  71.6892147  49.6687603  18.4587145  61.3457823  42.8383636
  18.8483059  60.5246162  42.5381422  18.2971954  61.8417692  42.0357800
  42.0959854  60.5735397  45.6316185  41.4750624  59.8459578  45.6677818
  42.1014023  60.8382988  44.7117758  21.9002390  63.8688898  64.9404955
  22.1621394  63.1332064  65.4940414  21.0301757  63.6301899  64.6207428
   6.4825249  71.5637398  37.3894882   6.4102000  70.6369781  37.6177883
   7.3111498  71.6295242  36.9148469  49.7120190  73.9182091  45.9078884
  50.2066469  73.2007313  45.5119181  49.4937563  74.4924164  45.1737976
  23.1158972  74.8846245  52.0638847  24.0414214  74.8199701  51.8283939
  22.7556849  75.5215883  51.4468241  71.5076160   2.2307877  56.8756580
  72.3266935   2.0806992  56.4036179  70.9838343   1.4488593  56.7010975
  79.2906666  12.7262831  68.5261917  79.7910404  13.4803987  68.2144785
  78.4178400  13.0757117  68.7059402  22.2603178  63.5056448  42.8532457
  22.8958702  64.2073965  42.7123499  21.7793417  63.4487867  42.0276165
  43.4421682  69.3543720  45.6801128  42.6999474  68.9769983  45.2079582
  43.1288862  69.4531965  46.5791750  13.6647129  14.9404597  65.7646513
  13.6949253  15.7996058  65.3437138  14.4915354  14.8788977  66.2429905
  68.4757328   8.3807820  51.0659409  68.9572477   9.0938878  51.4852953
  69.1435719   7.7237207  50.8697367  14.9006855  73.5390759  55.2575684
  15.1358259  72.6868343  55.6244802  14.6058500  73.3437872  54.3680906
   8.4227884   6.5561682  18.3725739   8.8435119   7.4149573  18.4138608
   9.1498524   5.9337932  18.3564723  13.7582505  59.6559429  43.5651827
  14.5402360  60.1300526  43.8479376  13.3713627  59.3266821  44.3764353
  49.7679663  58.7289381  67.2051620  49.7293997  59.1512632  66.3470316
  49.2299747  59.2840195  67.7696848  78.0032206  15.2588058  47.0024490
  78.5579300  14.9954867  47.7367496  77.6928282  14.4339633  46.6289234
   3.5592347  60.1365995  45.9093714   2.6477289  60.0358105  45.6350946
   3.8112041  59.2693472  46.2265730  78.2363462  30.3567004   1.7764524
  77.5974798  29.8942184   1.2340578  79.0732145  29.9418950   1.5671159
  78.7724924   3.1434080  46.9507790  79.1606951   2.9652140  46.0941696
  78.7274027   2.2870862  47.3761129  15.4950213  60.7680845  33.3425903
  15.2154350  60.2625513  34.1058064  16.3587344  60.4169178  33.1260014
  38.7489414  54.4516373  53.4869289  37.9055452  54.2162895  53.8736105
  38.6906552  55.3959513  53.3416510  39.2995667  56.0220003  60.7163620
  38.5204077  56.5632248  60.8437300  40.0292778  56.5916157  60.9598637
  13.5600436  61.0719681  46.5648365  13.4097934  60.1665163  46.2931347
  13.9473903  60.9991407  47.4371243  40.4926968  75.3308249  66.7018366
  40.8765936  75.0720978  67.5396395  41.1986399  75.2087927  66.0670280
  50.5127764  51.7288685  57.2525311  50.7259655  52.6460123  57.4246454
  50.0013542  51.7495680  56.4436722   3.1683823  74.1945553  50.8851957
   2.2351453  74.3331528  50.7236671   3.3630401  73.3582067  50.4622698
  11.7707360  79.1603422  55.3664541  11.3855720  79.3152857  56.2289333
  11.5427756  79.9392319  54.8589087  38.6789656  75.5967760  58.3356380
  39.2515874  75.1644468  58.9692211  39.0377855  76.4802599  58.2523489
  26.7053342  70.1480961  38.0956745  26.1594248  70.5421877  37.4152994
  26.7926455  69.2320776  37.8319979  41.3945818  62.0704412  47.9361963
  41.4418077  61.5806484  47.1151543  42.3035431  62.1349716  48.2292128
  38.4510303  55.8893299  57.8443146  38.5693026  55.7185364  58.7787008
  39.3405843  55.9225655  57.4924326  77.5146770   3.7042892   0.4037380
  77.0706844   2.8689456   0.2577822  77.2924709   4.2309904  -0.3640132
  80.3415871  67.1670389  34.6467352  80.4257298  67.8192806  33.9512229
  80.9903812  67.4285650  35.3001094   5.1896530  58.7596703  49.9482250
   4.6161216  58.6375093  50.7047749   5.0149161  59.6546698  49.6572399
  44.2994022  62.8206062  52.5896597  45.0552893  62.6805449  52.0193577
  44.0019178  63.7059069  52.3799419  79.3793917  51.9049740  38.6384273
  80.3028679  52.1275568  38.5205960  79.0800619  51.6542149  37.7644968
  15.6746900  55.0604773  56.7891073  15.3800189  54.7685385  57.6517630
  16.3554239  54.4338512  56.5438080  63.4988976  23.7222719   2.3977800
  63.7322283  23.8591695   1.4796036  63.3630848  24.6040964   2.7444351
  25.9026790  53.0826044  61.9961882  25.5299282  53.9418173  61.7985964
  25.5327153  52.5022840  61.3309193  59.3065643  12.0816517  67.4147272
  58.6812925  12.4074888  68.0621052  58.8559675  11.3494670  66.9938993
  30.2094936  60.8555317  58.2409334  29.4115925  61.2915707  57.9418421
  30.7466817  61.5605879  58.6022568  81.2103462  64.7804737  53.8305950
  80.5220604  65.3754425  54.1281033  81.1946106  64.0612125  54.4619799
   8.8967675  78.1151056  63.4671307   9.6371222  77.9940414  64.0616465
   8.8970494  77.3289490  62.9210615  12.8081071  75.4757738  45.3111172
  13.5232234  76.0761976  45.5216742  13.1624961  74.9133825  44.6223879
   7.5172085  36.7641091  27.5827432   7.9799229  37.1329713  28.3351159
   7.7460933  37.3413205  26.8542719  17.2848868  54.4430161  47.5418615
  17.6213551  54.4882441  48.4368372  16.4197898  54.0431786  47.6311398
  14.4478774  66.1695814  51.2240267  13.4998989  66.0765362  51.1296320
  14.7403693  66.5108967  50.3789377  36.9185495  52.5111008  26.7970037
  37.0745301  51.9260073  27.5383306  37.5325656  53.2335043  26.9287133
  12.6677680  10.1995981   7.8302443  12.6570797   9.8908877   8.7362331
  12.9798114   9.4488335   7.3250568  14.8832750  56.3514996  59.8740721
  14.5938349  56.9375324  59.1747713  15.6640255  56.7736149  60.2325058
  21.7766809  66.9267368  54.4479609  20.9809065  66.4050341  54.3440485
  22.1796775  66.5919209  55.2490377  76.9762373   1.5290630  55.2090359
  77.8653240   1.5507728  55.5629921  76.6854191   0.6276242  55.3471136
  20.0281501  75.7435226  56.6069269  19.2945910  75.1309538  56.5532875
  19.6198070  76.5915060  56.7813253  21.2123156  51.4734554  48.6165667
  22.1241307  51.5274334  48.3303690  20.9841514  50.5492592  48.5164070
  30.2826238  53.8562965  52.4164248  30.3754473  54.1829062  53.3113813
  30.7035708  54.5227337  51.8733835  41.6772699  72.0064592  46.7464066
  41.9524431  71.6646719  47.5971079  42.0068741  72.9049969  46.7313051
  15.9148622  53.2725191  59.0196419  16.0337508  52.3300934  59.1376543
  15.0923598  53.4682274  59.4684362  54.9073982  14.4763672  42.5743437
  54.1673279  14.8124754  42.0688152  55.6381655  14.4734740  41.9561243
   7.1752757  74.5150185  60.7173967   6.7364937  74.3296623  61.5476656
   6.9081420  73.7995481  60.1403618  32.2488475  75.7100916  60.9598684
  32.9726648  75.0873470  61.0270357  31.8050838  75.6537199  61.8061113
  70.6456709  13.1428611  61.3496399  70.6592083  13.9154792  60.7847404
  69.8154831  12.7119792  61.1462641  16.0571516  74.4318342  62.3815632
  15.8590031  74.3718100  61.4470243  16.7210960  73.7583637  62.5293636
  11.6050482  47.1309519  44.4564438  10.9707713  47.0590734  45.1697206
  11.0715914  47.1419096  43.6617517  37.9374194  53.9784241  38.3416796
  38.6158609  54.5443010  38.7100935  37.9074836  54.2130327  37.4141598
  78.8099527  22.5110745  32.1090508  78.3782578  23.2823944  32.4763846
  79.5340109  22.3332119  32.7093291  26.6049719  19.2178595   9.5384496
  27.4367785  19.5707762   9.8543268  26.7353129  18.2696235   9.5288551
  19.0720522  63.5445499  64.0373659  18.6705565  62.6774263  64.0932989
  18.4520769  64.0629148  63.5243750  52.6152468   0.2138604  50.0275183
  51.7393637   0.3826542  50.3747463  52.7116156   0.8370610  49.3074036
  25.4933453  56.0610676  43.1023884  25.2492261  55.9889603  42.1796560
  24.6644950  55.9891701  43.5757494  41.1009216   8.2019770  10.1955557
  40.8447790   7.9768914  11.0899591  41.9995689   8.5214078  10.2769744
  45.4086876  67.7224112  46.9276667  46.2446022  68.1845236  46.8649817
  44.8248672  68.2027292  46.3405657  14.4509685  54.9897575  67.5075340
  13.6457682  54.4825983  67.4042225  15.0856650  54.3632841  67.8552723
  42.6109552  78.6391115  64.8524523  42.0428324  78.5342979  65.6156540
  42.7747393  79.5809126  64.8033190  81.0487366   3.6065024  18.4190655
  80.8020496   4.5176455  18.5778034  80.4032898   3.2902732  17.7868950
  77.7278566  78.0369568  30.3047180  78.4037399  78.7140322  30.3359771
  77.7500391  77.6360893  31.1736512  46.7362785  53.8359976  49.3188667
  46.3112879  54.4876051  49.8765659  46.0206223  53.4489632  48.8146210
  41.8415308  72.3420715  49.6820736  41.2622404  71.8091345  50.2267122
  41.2491322  72.8898001  49.1670084  43.8893127   2.9068851  40.9599400
  44.5585728   3.5466385  41.2029219  44.2203569   2.0742945  41.2967348
  34.3939734  67.6420069  43.3831692  35.3134871  67.3865080  43.3093786
  34.4042253  68.4119940  43.9517212  37.2684240   7.8043354  33.9423323
  37.3231745   7.5399035  33.0240130  36.6556334   8.5396713  33.9437079
  38.6194181  59.5717430  68.2837915  39.4337511  59.5574617  67.7809095
  38.5843563  60.4521084  68.6579037  28.1725693  67.0320320  38.0997682
  28.8277411  67.7182579  37.9729581  27.6811433  67.0153713  37.2785163
   3.8786840   0.6439567   5.1505625   3.7101531   1.5724653   5.3108776
   3.4861156   0.4736236   4.2943448  16.3452113  39.3990374  65.9537697
  16.7865813  38.7189817  66.4626360  15.9895909  39.9971700  66.6110373
  38.6784530   0.3716625  68.4105682  38.8690209   1.3000630  68.2764530
  39.4854903  -0.0772985  68.1588602  73.2716179  24.7440934  27.6378632
  73.8081932  24.4226360  28.3624196  73.6068964  24.2833662  26.8687415
  32.6764059  61.2280130  51.6589975  32.6221824  61.3817835  52.6022100
  31.8113351  60.8948278  51.4205217  27.3904276  63.9710188  57.4809074
  27.3342824  63.5423517  56.6269016  26.6822457  63.5796928  57.9923487
  16.6383147  69.6365881  47.4226236  16.9209659  70.0943565  48.2143259
  17.1890163  69.9974108  46.7278099  21.3688993  55.7748413  39.6256161
  21.3345742  55.6327820  38.6796379  20.4583478  55.9278822  39.8780251
  27.9075003  70.1253605  52.1420765  28.8146186  70.3954887  52.2849035
  27.7194905  69.5260859  52.8644037  21.6115928  45.9229231  68.4432077
  22.4310565  45.8025742  67.9633856  21.7894435  45.5673456  69.3139362
  82.2384930   7.6867211   4.3105024  83.0078602   8.2246840   4.1236675
  82.3052120   6.9529414   3.6994800  66.4828730   5.3919774  43.0993700
  67.0117807   5.7234943  42.3737049  65.8215714   4.8404613  42.6813459
   0.7379708  42.9120541  55.2126455   1.6555420  43.1256294  55.0432920
   0.3232376  42.9366064  54.3503094  22.2633028  63.2086420  53.5233784
  22.7223563  62.3691130  53.5498333  21.3405061  62.9806900  53.6361408
  79.2608452  58.9195776  63.8104630  79.9269390  58.4776831  63.2838917
  79.5977211  58.8796043  64.7055292  43.2073259  65.8063412  69.3598557
  42.9106951  66.2927151  70.1290655  43.8454199  65.1809597  69.7033119
  71.5560818  15.5089486  19.2480767  70.6369209  15.3092647  19.0706062
  71.6057158  15.5814934  20.2012324  34.2128587  79.3141794  64.5317698
  34.7266555  79.0115261  63.7830067  33.6903095  78.5538101  64.7867346
  65.6157221   0.3797499  38.8061595  65.0174179   0.4073588  38.0594969
  65.8516874  -0.5441126  38.8899684   2.3390943  49.9123049  35.1997614
   2.4837357  50.3095913  36.0585237   2.8974006  49.1347933  35.1984572
  33.5768151  78.1447601  47.3113585  32.9037976  77.4727011  47.4191189
  34.3604732  77.6596737  47.0528936  32.9072142  17.1980679  68.9560032
  32.9385567  17.0584226  69.9024439  33.7640882  17.5657439  68.7396383
   4.5434976  47.2273302  64.2232370   4.9578923  46.3750505  64.3578959
   3.7755418  47.0377684  63.6842203  33.0946565  51.8138027  31.8094993
  33.1266022  52.6924038  32.1880078  32.6595545  51.9324160  30.9651947
  19.3977416  78.8175917  56.1760902  19.0143251  79.0712404  55.3365183
  20.3175354  79.0732193  56.1063385   5.1215822  52.9671001  38.3549929
   4.7171170  53.1067228  39.2112303   5.0687265  53.8197517  37.9232311
  58.3766890  20.0741863  26.0260296  57.7875710  19.8950660  26.7588925
  58.0930758  20.9257221  25.6933403   6.9842565  20.9278679   3.3797520
   6.3837272  21.5100074   3.8452721   6.5906441  20.8204198   2.5138676
  59.1696787   1.6668871  41.6337252  59.0384293   2.6114860  41.7158127
  59.9846315   1.5803945  41.1391544  51.8838120   9.2496943  54.5734930
  51.2816429   8.5706246  54.8776102  52.7488995   8.8432300  54.6249533
  10.2255416  58.1628275  52.1065378  10.9021831  57.4864578  52.1367884
  10.0444591  58.2789135  51.1738205  14.9743664   5.6210315  12.4726129
  14.3552029   5.4992950  13.1923687  15.7200778   5.0663829  12.7017665
  25.7672930  74.0741444  44.7822142  25.7957458  74.3589306  43.8687992
  26.4716196  73.4299707  44.8543024  50.3109741  79.8890162  35.9344387
  49.7471905  79.1225100  36.0386109  50.8512735  79.6869040  35.1705933
   3.2985604  57.4161959  55.5231094   3.5103232  56.8506145  54.7804737
   3.4664312  58.3029985  55.2043104  37.0953012  63.0081463  55.9932613
  37.1240211  63.0461168  56.9492722  37.9531646  63.3288383  55.7149410
  80.5163288  67.9393435  51.9710588  80.0758553  67.8273582  52.8134823
  79.8671103  68.3727789  51.4170837  53.9196014   5.3102463  46.4753103
  54.5145416   6.0573053  46.4106607  54.3802023   4.6849698  47.0348644
  30.3354120  53.3842754  39.5540881  29.4271874  53.1084347  39.6776652
  30.4513049  53.4082937  38.6042333  51.2463570  13.1657135  46.5518999
  51.1555576  12.3751497  46.0199261  51.9114017  13.6841357  46.0989285
  83.1057739  42.5360107   6.0364079  83.9178276  42.9099607   6.3784051
  83.2048607  41.5923548   6.1626166  37.7702951  11.1892557  51.7677450
  37.7426672  11.7661512  52.5310659  36.8714499  10.8740592  51.6730833
  22.9604793  60.4706717  52.8728247  23.4941411  60.1070595  53.5793829
  22.6018071  59.7045135  52.4249649  11.6412067  67.3428249  46.4481497
  12.1133244  68.1735611  46.3914871  11.1143112  67.3118305  45.6496191
  47.7290106   8.8814348  41.5886068  48.4956646   9.4339806  41.7408323
  47.2728252   9.3005103  40.8588791   3.5658905  73.4854746  56.9304991
   2.6617807  73.7831163  56.8293619   3.8451833  73.2619143  56.0426664
  37.2688603  46.9035482  66.4925480  38.0423856  46.7864513  67.0440674
  37.5871539  47.3937750  65.7345247  13.9643753  45.1615572   0.6773125
  14.5235169  44.9570274  -0.0721949  13.2629061  44.5115042   0.6372774
  82.8619385  41.5049458  12.8094399  83.1184196  40.6382942  13.1246591
  81.9051743  41.4963531  12.8369844  14.1308069  57.5624323  52.8778744
  14.1810501  58.4877586  53.1176186  13.8884830  57.1174240  53.6899567
  27.4460506  55.7349491  53.2193089  28.0275083  55.6287479  52.4664068
  27.0342660  54.8775578  53.3267355  82.0461178  32.5128698  26.7634320
  81.1622334  32.4796319  26.3975430  82.5406837  33.0521345  26.1463118
  19.0381682  65.5887365  54.2498922  18.2801902  65.0355053  54.4386625
  18.8331139  65.9970856  53.4087992   8.9191878  43.7411690  33.9241838
   7.9847407  43.5351324  33.9484739   8.9664525  44.6674299  34.1609001
   5.3328037   2.2513081  60.9107113   5.1938152   2.4183895  59.9785089
   4.4623640   2.0407352  61.2486839   7.6708734   9.2780608   1.3860071
   7.9090124   9.1139257   0.4735480   8.2649124   9.9739987   1.6671120
  37.4806833  49.3229294  53.3345413  36.6749167  48.9881706  52.9409552
  37.7607203  50.0246763  52.7468634  83.7124443  53.1881905  20.1629853
  83.0200291  52.5628424  19.9491203  83.2483864  53.9495707  20.5111051
  69.4460058   2.7413160  42.1068096  70.3815269   2.9390955  42.0630264
  69.1660690   3.0933318  42.9517651  24.1399026  55.9564304  40.7943344
  24.3437147  55.1603556  40.3034639  23.2791924  56.2231636  40.4714394
  15.0472391  16.4484894  10.3240597  15.0292027  15.9703255  11.1530757
  15.2729654  17.3456252  10.5698788  16.5215147  61.1634684  67.5655460
  16.7488647  60.5178928  68.2347059  15.6480145  60.9056568  67.2709846
  38.2553220  52.2378540  58.4627056  37.7139831  53.0267477  58.4916067
  37.6335406  51.5261412  58.3107758   5.0849503  29.7708273  12.5148821
   4.4817623  30.1869988  11.8990922   4.7795185  30.0529742  13.3770514
  37.7829337   6.5135592  38.8579512  38.2351017   5.6933975  39.0557122
  38.4842992   7.1595240  38.7740040  26.9776487  71.6544390  55.8306265
  26.5641618  70.8183479  55.6156397  26.4919567  71.9732285  56.5913582
   5.3554583   8.9045089  19.3252563   4.7803849   8.5761356  18.6341023
   5.8155227   8.1276840  19.6432447  35.0672269  56.1249638  65.4570770
  34.9203849  55.2724695  65.8668518  35.7230949  56.5474892  66.0116434
  21.9796395  60.7490587  43.1694555  22.2558331  61.6629648  43.2382011
  21.5842390  60.5537891  44.0190220   5.1138628   9.3985361   4.3107989
   4.8837990   9.3435949   3.3832842   4.9070373  10.3004241   4.5558548
   8.3341479  55.7391119  39.6681046   8.6713177  54.8666191  39.8713279
   8.1183714  55.7014561  38.7363029  80.1972198  39.4377637  33.4449482
  79.7969627  38.6260509  33.7566280  80.9988689  39.1557527  33.0044174
  26.4645028  56.6954803  32.4877667  26.0990357  55.8540249  32.7609324
  26.6618848  56.5804482  31.5582275  30.6236625  53.3375740  47.9074764
  30.5163598  53.1609440  46.9728565  29.9133348  53.9429998  48.1199074
  50.1215696  78.4809780   8.4846348  50.4595947  79.3470955   8.7122595
  49.1810942  78.6143541   8.3665580  82.7338886  66.0907602  58.8737631
  82.5070000  65.3778648  59.4708681  81.9162369  66.5744638  58.7566328
   0.5971498  28.5960579   2.0266716  -0.0801369  29.2392254   1.8172733
   0.5654095  28.5165691   2.9800373  21.3441563  78.7663460  65.1025009
  20.9665656  77.9075098  65.2923822  21.8359852  78.9916468  65.8921671
  83.1165600  78.1765127  45.0469637  82.8145409  77.6375151  45.7780600
  83.9453030  77.7776957  44.7817183  79.1159201  29.5658493  13.7580669
  78.6307764  29.8430824  14.5352471  79.0653372  30.3149199  13.1642938
  43.1606483  62.5642109  57.9118633  42.7972412  63.3937836  58.2216740
  43.5455751  62.7742386  57.0610094  56.4974546  26.7657948   7.3513991
  56.8580198  27.2118258   8.1177390  55.9546471  26.0661483   7.7148438
  51.3706350  14.5075488  20.7233500  51.4972496  13.7273967  20.1833844
  51.5856457  15.2378774  20.1431584  40.1786089  66.3332033  50.4414892
  40.8848810  65.7371569  50.1922035  40.6078291  67.1822166  50.5472231
  34.3111110  43.0780935  66.9470453  34.7640371  43.3008146  66.1337280
  34.4619608  42.1391344  67.0558071  32.8256059  74.7723913  42.6754141
  31.9749331  74.7968292  43.1135798  32.7174640  74.1253948  41.9783211
  75.0186920  77.8715420  51.0204601  74.6521187  78.7153673  50.7562399
  75.9106159  78.0754089  51.3017845   7.7760381  63.6342621  53.3218813
   7.4228299  62.7953291  53.0257940   7.0305920  64.0790081  53.7252951
  14.9650383  69.2247248  58.8556671  15.7146347  69.2292595  58.2604218
  14.5919871  70.1027870  58.7777185  81.8915558  48.0483150   3.3230636
  81.7138672  48.1229496   4.2606604  82.2515774  48.9009619   3.0789036
  23.2199478  51.3879013  62.5108957  22.5350904  51.5210676  61.8555593
  24.0299320  51.3352537  62.0035696  18.8390636  19.9214363  54.7000027
  19.1870475  19.4326830  55.4458332  18.3102894  19.2832446  54.2211056
  34.6714807  54.8432064  69.3966770  35.5751443  54.8720312  69.7109842
  34.1473722  55.1183796  70.1488876  50.2068233   1.6025248  48.6101770
  50.8585405   1.2633033  47.9966450  49.7310638   2.2666141  48.1113100
  20.6244087  55.8827591  52.2769213  19.9796772  55.2129698  52.0490313
  20.4953146  56.0305548  53.2137918  55.5237150   9.3366623  33.2666969
  54.9101019  10.0603044  33.1399846  56.3359022   9.6371317  32.8588939
  45.5201721  75.8599758  58.7227440  45.7305431  76.6355991  58.2027578
  46.0126495  75.1521873  58.3071327  27.4934387  65.8129644  50.0423765
  27.0615196  66.2702417  50.7638884  27.0579386  66.1413670  49.2557859
   5.5333239  31.5995812   4.3429393   6.0489559  31.5171623   5.1451629
   4.6235102  31.5697575   4.6388799  71.9104195   7.6306933  53.2220888
  72.6192665   6.9968969  53.3319521  71.4275694   7.5955307  54.0478277
  44.3933868  72.9084730  37.5600314  43.8411474  72.4619102  36.9182825
  44.8829842  72.2046804  37.9857039  54.5868301   5.1173383  35.2382112
  54.3627071   4.8172206  34.3573403  54.2024994   4.4613510  35.8197618
  64.8296213   0.0790722  54.0620375  64.5959663   0.8048975  53.4834051
  65.5469942  -0.3657197  53.6106300  36.8193173  76.7045212  55.2813673
  36.2531853  76.9997406  54.5682240  36.2443113  76.6721821  56.0459328
  63.2017326   3.2248002  30.9574699  62.3154688   3.4131923  30.6487966
  63.5219193   2.5441766  30.3654695  43.0392265  45.2576971  57.3461246
  42.2320557  45.5734587  57.7523279  43.5440159  44.8892927  58.0711746
  75.7359219   2.8234771  31.9363165  74.8558807   2.8478232  32.3120403
  76.2186766   3.4986275  32.4131298  32.2610807  79.8480940  52.5605392
  32.2220421  80.6855297  52.0985794  31.4486456  79.4032574  52.3190737
  53.2761478  59.3980074   6.3943809  53.2300138  59.7156334   7.2961664
  52.5805283  58.7431431   6.3352162  34.1139960  67.1491146  40.2575493
  33.6594963  66.7577076  41.0035133  35.0375390  66.9463730  40.4065371
  32.4538350  17.2339237  10.8770919  33.3574820  17.0426369  10.6259704
  32.2991967  18.1225526  10.5566907  77.1867371  41.2511110   2.4246283
  76.5400457  40.6099033   2.1298796  76.7895269  42.0995617   2.2281864
  33.2008338  72.5452232  40.8104563  33.2014823  71.6886139  41.2376022
  34.0810561  72.6309204  40.4442644  23.7372589  75.2765417  46.0268021
  23.3669305  74.7737169  46.7522335  24.5490193  74.8189449  45.8079863
  60.9838867  49.1887999  10.5876994  60.8717203  48.4887981   9.9445438
  60.5028057  48.8858604  11.3577771  64.3585443  76.3186455  52.4925661
  65.0179195  76.1834431  51.8120003  64.5327425  75.6306744  53.1348896
  54.1830921  10.1788604  56.9753599  53.7851238   9.3173063  57.1001673
  53.9564753  10.6645310  57.7684546  29.0022326  50.8363724  59.8088932
  28.2497811  50.2470446  59.8612642  29.7589087  50.2739716  59.9743557
  57.7183342  62.0980453  55.2683496  58.3144093  61.4818525  55.6940603
  56.9024324  61.6085625  55.1637316  48.9354038  70.2180481  51.7956638
  48.3584023  70.0334024  52.5367451  49.8191023  70.1458216  52.1563482
  41.1631680  78.1555748  57.6807976  41.5989447  78.7254953  57.0471382
  41.8580008  77.5826693  58.0051708  58.3856773  80.4726887  41.4675808
  58.4357595  81.1095810  40.7547760  59.0866089  79.8482370  41.2805080
  32.6887846  65.1988411  65.9700012  33.6218143  65.2092552  65.7565022
  32.5903440  65.8690214  66.6463137  68.8487101  10.8828282  49.5900106
  69.6283817  11.4079237  49.4093990  69.0210772  10.0435150  49.1633081
  32.8602004  73.0760145  70.4817009  32.4984741  73.8418198  70.0356865
  32.5549769  72.3309755  69.9640322   4.6054366  28.3139372   2.3979376
   5.0569105  29.0622711   2.0075542   4.1322941  28.6822581   3.1440660
  62.3339558  78.5868454  68.1965208  62.9077387  78.7381124  68.9476013
  62.6592922  77.7756977  67.8061056  30.9317017  74.3549967  29.8521304
  30.4266763  73.6159468  30.1912260  30.6867743  75.0903177  30.4138684
   8.7945467   4.8704019  45.6740379   8.2054597   4.9533841  44.9241543
   9.0235168   3.9412767  45.6970739  52.6582432  59.1036177  59.3254709
  52.9007816  59.0066624  58.4045982  53.2295513  59.7988939  59.6516991
  64.0434790   1.3633355  44.8846626  64.9271679   1.5066656  44.5458698
  64.0185785   1.8561190  45.7048893   7.1441960  52.9329967  11.3690102
   7.9102635  53.3560467  11.7568219   7.3344809  51.9964886  11.4235771
  29.4713807  76.6230059  39.1179729  30.2937460  76.6345549  39.6076798
  29.5685291  75.8952570  38.5038304  40.9973669  79.3646431  48.5783291
  40.0750065  79.5868301  48.7052822  41.1344576  79.4414234  47.6341152
  29.1017842  73.5465240  43.4566927  29.7011256  74.0174246  44.0357208
  29.5479250  73.5330391  42.6099300  11.5943599  48.0518818   1.3763557
  11.4330339  47.6481962   0.5235719  12.2800720  47.5128412   1.7706449
  41.2558889  71.1959028  42.3148680  41.8908310  71.4378166  41.6406584
  40.4981327  70.8747864  41.8260670  74.7568226   3.8061836  42.7893877
  75.1921320   4.0322107  43.6113644  74.2058229   4.5640808  42.5938702
  51.9726515  65.3810596  69.7578764  52.2830582  65.6351233  68.8887787
  51.0206890  65.3361750  69.6685457  55.6948853   2.4243422  23.6881065
  56.1772490   1.5994394  23.6324906  54.7742748   2.1674493  23.6360288
  46.8916082  74.1131163  53.4630632  46.4911604  73.5060215  54.0854120
  46.7486429  73.7081194  52.6076269  78.0894470  53.8149118  18.8875842
  77.3904228  53.2552242  19.2257404  78.5790777  54.0828371  19.6652126
  40.3136301  78.7365341  66.3470984  40.1749182  77.9378128  65.8381414
  39.5384645  79.2699862  66.1716557  12.2732151  50.9173346  12.8252053
  13.0507743  50.8540535  12.2705626  11.9627941  50.0155020  12.9062617
  64.0018225  66.4893961  59.2459297  64.5421505  67.1949768  59.6015072
  63.1906796  66.5303564  59.7524929   7.8504252  77.0458221  47.5910568
   7.8877562  76.2185192  47.1110439   7.4839282  76.8116617  48.4437466
  30.3389382  79.2158937  37.1849632  30.3744864  79.9307108  36.5493464
  29.4070697  79.0120173  37.2642589   7.2225088  64.3354034  38.1717181
   7.4330401  63.6630821  38.8197088   6.8545133  65.0551844  38.6842871
  57.8199339  68.0024624  55.6529713  57.4984741  68.2925653  56.5066338
  58.7273073  68.3057976  55.6230164  46.0290003  58.8415098  65.6160021
  46.2821960  59.6743870  66.0140467  45.0723314  58.8665199  65.5962372
  19.5603907  48.9391470   3.7998235  19.9120855  48.6079788   2.9734635
  18.8355219  49.5080757   3.5407564  79.6545219   7.9328465  49.7107744
  79.5352650   8.1779450  48.7932014  79.5926476   6.9776529  49.7135258
  60.9919405  13.8871706  56.7100525  61.6276455  13.5609579  57.3469973
  60.2369404  13.3067143  56.8063641  53.6998510  16.0176635  48.8887405
  52.9622126  15.8964217  49.4865894  53.2980394  16.2974679  48.0662489
  63.2056808  12.3956943  40.1766205  62.2631168  12.2599816  40.2735233
  63.3291435  12.5599933  39.2417455  22.8753090  63.7178564  69.4771242
  23.8258386  63.8004398  69.4002771  22.6666260  62.9089022  69.0099192
   4.8936844   9.0268850  47.4867916   4.3809217   9.0978283  46.6816378
   5.0988579   8.0947047  47.5587320  39.7481799  76.6642809  53.2666254
  39.5033479  77.4597454  53.7394047  40.0646734  76.0694170  53.9464760
  31.2506580  62.1457338  63.5495901  31.3749361  63.0947924  63.5409355
  31.4167261  61.8906975  64.4571209  25.4376507  77.8476095  32.6272774
  25.8757401  78.0419540  31.7987013  26.0026407  77.2015953  33.0511713
  73.3628178   8.5496181  57.6472998  72.6615381   9.0683860  58.0414057
  73.0057669   8.2638305  56.8064213  15.0176275  72.2041512  43.8756895
  14.4138110  71.5174580  44.1586971  15.8511186  71.7516899  43.7460566
  74.6798086  23.2422781  65.1155186  74.3740845  23.8275027  65.8085394
  75.6103230  23.4466171  65.0226450  42.3475075  76.6458845  35.7123137
  42.8330231  76.5499973  34.8929787  42.1514606  77.5812197  35.7664919
  21.5383530  71.1185026  33.0974483  21.7216372  70.1944304  33.2669449
  22.3779535  71.5578985  33.2324719  28.9108706  69.5681810  46.6034889
  28.3723998  69.3010283  45.8585644  29.7356200  69.8557758  46.2119436
  46.3132191  61.3709545  66.6214561  45.5914688  61.6463375  66.0562372
  45.9180498  61.2830067  67.4888325  40.3929186  58.3022547  61.7224741
  40.0318098  59.0009451  61.1768866  40.8472061  58.7608385  62.4292707
  26.1271191  50.2618408  55.3791094  26.7200232  49.5585203  55.6437492
  26.3058805  50.3878689  54.4472313  52.5289059  74.2817450  37.6235604
  52.1826172  73.4286499  37.8853583  52.8541565  74.6680069  38.4367323
  29.7159791  74.2944384  60.3250217  30.3500962  75.0075340  60.3999901
  29.8797846  73.7465763  61.0926437  44.0568352  62.5538492  48.9032698
  44.6650457  62.2149658  49.5601368  44.4633913  62.3348522  48.0648279
  84.8233604  20.3824139  64.4946575  85.7391453  20.6565309  64.5440626
  84.4398117  20.6786728  65.3200960  27.6319337  76.3267469  40.9844875
  26.9360590  76.8666697  40.6096888  28.2743669  76.2411451  40.2800798
  30.5737090  19.1673434   8.5111320  30.8683515  20.0205302   8.1925541
  31.2907314  18.5707581   8.2961959  17.4891984  74.7631741  56.3837576
  16.7408204  75.3599024  56.3747358  17.4064565  74.2629337  55.5718851
  25.1275659  76.3612700  19.0856063  24.7867441  76.5500021  19.9599361
  24.4556212  76.6927433  18.4899139  49.2964935  77.1706390  51.2117338
  50.2252531  77.2496510  50.9940147  49.2610788  76.4650822  51.8576241
  19.4872415  28.0861163   7.5028872  20.2427626  27.5075674   7.6063353
  19.8638809  28.9290690   7.2502887  30.3790021  70.9712839  52.8630161
  31.1321998  71.4436102  52.5082874  30.7516456  70.3886509  53.5247660
  78.9978504  15.1869321  49.6477509  78.4945679  15.9676743  49.8787880
  79.9119091  15.4644203  49.7088766  39.7858453  66.8113661  63.6243296
  39.0812492  67.4493599  63.7372017  39.4880581  66.0383129  64.1038561
  76.1961651  12.7334452  66.5292692  76.9757175  12.1944356  66.3951015
  75.6086397  12.4868715  65.8149529   1.3891481  10.6178939  56.1000681
   0.9160829   9.7881693  56.1633062   0.8030742  11.1906493  55.6053972
  66.4458799  12.2690451  66.1890984  65.7546854  12.5663304  66.7807913
  66.7295456  13.0622029  65.7344913  53.6789846  79.2285252  30.9173703
  53.1411934  78.6861181  31.4942622  54.4556046  78.6965847  30.7437921
   4.5813313  48.7948751  25.0165510   4.8348579  48.0670786  25.5842400
   4.4956923  49.5419884  25.6087685  17.5113010  13.6066616  42.8948975
  18.0451262  13.0462849  43.4581375  17.5435793  13.1839466  42.0367002
  48.9625597  20.3546762  61.9226599  48.1564951  19.9107671  62.1861601
  49.5911646  20.1385212  62.6113987  37.5770712  74.5540953  66.8269300
  37.3142815  74.0065765  67.5667953  38.4883571  74.7827673  67.0099640
  37.5995088  68.0614853  53.5511255  38.2554722  67.3967934  53.7611961
  37.0334578  68.0915451  54.3224335  32.7607584  17.2413373   7.2678518
  33.5946417  17.6656067   7.0657003  32.3453426  17.1112645   6.4153588
  47.4828482   2.7825671  48.8281727  46.5667200   3.0585349  48.8561916
  47.9508734   3.5409796  48.4788942  64.5790100   0.6921565  29.3900895
  64.2918968   0.9702277  28.5203362  64.4755697  -0.2594159  29.3835998
  42.1699905  70.9519863  63.2994366  42.2937059  70.3855944  62.5377798
  41.6336823  71.6755342  62.9752731  27.2431445  63.8772631  46.7134333
  26.3603020  64.2344332  46.6172457  27.2712922  63.5467672  47.6113272
  59.4744110   5.2677202  41.2990999  60.3043652   5.0869542  40.8578157
  59.5493984   6.1775178  41.5869856  48.7419939  11.4209878  47.1648407
  48.2095242  11.5893102  47.9422569  49.6204948  11.7127287  47.4084806
  34.9122095  49.0357208  52.1722460  34.0352082  49.2170477  52.5102139
  35.0790691  49.7419024  51.5479946  14.5053279  78.0507851  55.1452446
  14.9289763  78.8014555  55.5614710  13.5977995  78.3276367  55.0188398
  -0.1488272   4.6825475  45.8164024  -0.6129709   3.8609648  45.9770489
   0.7778009   4.4483349  45.8686876  84.7766304  15.6607199  51.7256975
  84.3068409  16.2491834  52.3166656  85.7005501  15.8680034  51.8658161
  19.7318101  32.1297097   3.4466559  18.8962746  31.9186854   3.0300245
  20.3606915  32.1502542   2.7253261  74.6838760  11.2429619  44.9801731
  74.7886801  11.9803727  44.3789482  75.1747704  11.4989388  45.7610273
  61.7564011   6.8966424  27.2423077  61.7849112   7.7733463  26.8591499
  62.3860645   6.3903499  26.7290592   3.9206839  18.9071476  26.3787937
   3.7242249  19.8005474  26.6607022   4.1237414  18.9892113  25.4469848
  64.4777060   5.7299024  61.2765503  65.1993704   5.9961087  61.8462658
  63.9425373   5.1530480  61.8215895  63.9652681   8.1014556  63.7002563
  63.1531096   7.7213109  64.0351057  63.6797047   8.7337399  63.0407858
  38.5634637  53.8968992  62.2811985  38.9726996  54.6370697  61.8329668
  37.6400590  53.9482355  62.0343733  67.8641653  29.0378594   6.6436249
  68.7307644  28.6317801   6.6618502  67.2692680  28.3227515   6.4178985
  55.6680965   5.7532483  55.6483316  55.6278753   4.9488819  55.1310205
  55.4939985   6.4523125  55.0180674  42.5612831  59.6037531  29.7450113
  41.9691515  59.9439716  30.4157305  42.8856087  60.3833151  29.2940903
  33.4952116   9.6550113  39.0265203  34.1875362   9.2708236  38.4886360
  32.6953840   9.5230711  38.5175061  46.4472103  80.9960747  34.2719936
  45.5732441  81.1241531  34.6407938  46.7747116  80.2055454  34.7009850
  24.5413685  77.3372841  44.0546894  24.3970084  76.4561510  44.3996477
  24.0127540  77.3719645  43.2574511  82.1032810   6.7760742  53.2573414
  82.8802586   6.3422650  53.6099672  82.4499130   7.4517661  52.6746607
  31.6936827  15.0386989   8.9894557  31.7993045  15.3410459   9.8914880
  31.6383052  15.8423352   8.4724128   6.3598055  43.0955172  21.5873957
   6.5849006  42.7356148  22.4453211   5.6347674  43.6955404  21.7621064
  39.9762511  53.2856846  56.0964584  39.6301413  52.8986692  56.9006109
  39.3586040  53.0171490  55.4162836  17.0067811  68.8643408  57.0457840
  17.1032536  67.9192495  56.9286203  17.7002084  69.1013670  57.6615810
  17.8525043  67.1170235  64.2452621  17.1216166  67.6443148  63.9227724
  18.4749317  67.1003580  63.5182571  46.1837816  77.1517658  45.9499264
  45.7264948  77.4563265  46.7337370  46.7879295  76.4819288  46.2701750
  38.9227152  68.3900595  41.4787531  39.5088387  68.8421679  40.8718872
  38.8021564  69.0075684  42.2001266   1.1501729  45.9103584  10.4312611
   0.8624865  45.0471258  10.7284153   0.5495095  46.5224743  10.8564067
  34.2949224  30.4255819  12.3972559  34.2495728  31.0730290  13.1008101
  33.4033227  30.0842810  12.3280084  31.3241863  71.2389660  45.7430887
  30.7823920  71.5813828  46.4540291  31.8234539  71.9959164  45.4365110
  45.1699400  69.6469069  56.3836908  45.8494091  69.6470499  57.0578957
  45.2777624  68.8081980  55.9351587  51.8652344  71.1246395  67.8814840
  51.8261862  70.8507156  66.9651461  52.2760868  70.3881788  68.3343220
  32.9628396  70.5305624  68.6197329  32.5171232  69.8309231  69.0973043
  33.8798308  70.4540205  68.8833666  54.1232634  17.1558404  31.6667199
  54.1550350  17.5872207  32.5206137  55.0393581  16.9771028  31.4544415
  28.4811831  71.0501003  61.7645788  28.2096529  70.1322556  61.7729235
  27.6856327  71.5371847  61.9792318  46.1642027  79.1119385  58.4653807
  45.2709579  79.1278028  58.8090229  46.6700888  79.6327209  59.0891600
  15.7091570  31.9739509  11.1548662  15.5481637  32.4559331  11.9660413
  16.0808599  32.6246738  10.5593622   8.1556660  56.0744429   3.2212994
   7.5598121  56.8119669   3.0899763   7.7097112  55.3310347   2.8154621
  22.9041862  51.4322376   9.4135290  23.2126737  51.6148663  10.3010631
  22.1290755  51.9844341   9.3110031  62.6228046  71.8186378  49.8201370
  63.0684900  72.3754025  49.1816950  62.3117208  72.4258041  50.4915571
  75.9420013  11.1690724  47.9410219  76.3284302  10.3336310  48.2035923
  75.8392859  11.6534424  48.7602091  55.1546144  75.5438042  64.1040421
  54.2723370  75.6166220  63.7400103  55.3046370  74.6016312  64.1817617
  36.0347724  56.6877127  56.6504908  35.9005141  57.6319838  56.5695047
  36.9477582  56.5981674  56.9237471  30.3620553  31.3034225  10.6446576
  29.8356962  32.0437765  10.3429091  30.1589465  30.5986738  10.0295901
  45.3869438  60.9584522  58.6054373  44.7560310  61.6169357  58.3146191
  45.8530188  60.7049751  57.8087234  40.2580023  80.0535488  69.0121174
  40.2739000  79.6353769  68.1512403  40.8390951  80.8088589  68.9222622
  66.1288834  67.8676701  60.8117390  66.6196346  67.9966259  60.0000954
  66.7420673  68.1142759  61.5041447  80.8202457   2.8196830  65.3607798
  81.1476040   2.1090582  64.8093462  81.4715385   3.5148808  65.2672911
  50.4961824   0.7068915  30.8186865  50.7030535   1.5969637  30.5337143
  51.2649393   0.4303294  31.3174438  33.6493039  71.2242746  60.3500032
  32.8735447  71.2434006  60.9104156  33.4396982  70.5811739  59.6727133
  71.0751629  11.9318902  46.4325285  70.8960056  12.0120120  47.3693943
  71.7215586  12.6146674  46.2530375  55.0378418  70.5276155  68.5828590
  54.5481777  71.3500595  68.5756111  55.2876902  70.3895617  67.6692104
  66.1596680   7.2032952  37.0045137  65.4511642   6.5913409  36.8050909
  65.7257700   8.0521142  37.0909548  65.0269175  76.1938000  60.1270103
  64.2882586  76.7573357  59.8966932  65.7479572  76.8006134  60.2946663
  37.3761249  78.9108181  33.6081076  36.4716315  78.9744377  33.9148259
  37.3231769  78.3772278  32.8151941  12.9106081  59.2839527  61.6139269
  12.8103793  59.7603369  60.7897615  12.0709729  58.8415384  61.7384863
  27.3840356  57.3183441  60.7821846  27.1871233  57.6596880  61.6545057
  26.5293097  57.0943594  60.4140759  66.2056923   3.6349946  54.0015316
  66.1046553   3.1672031  54.8305035  65.5197620   3.2758763  53.4387159
  79.1431475  13.8048983   8.1660080  78.9993143  14.7502267   8.1224358
  79.9475336  13.6617768   7.6672983  43.4726906  64.6250868  45.8736944
  43.6306524  63.8214493  46.3691187  44.1489029  64.6256304  45.1962233
  45.3247690   0.4663987  45.0824881  44.9858141   1.2094490  45.5817080
  44.5985985  -0.1567321  45.0576878  54.5069981  72.4941826  51.8814039
  54.3364286  73.3515263  52.2713995  54.0442038  71.8769455  52.4480391
  35.5676603  48.2118034  58.7954903  36.5006304  48.0032587  58.7474489
  35.1480269  47.3817301  59.0215778  39.9967122  75.8144617  50.9082317
  39.0457582  75.8981419  50.9783649  40.3361559  76.3045979  51.6570807
  48.6398554  57.3086643  55.1382494  47.9561615  57.3066044  55.8081675
  49.4158268  56.9728231  55.5869246  63.2720518  64.5056152  56.9523430
  63.5330820  63.8127327  57.5589800  63.5666323  64.1972065  56.0954094
  58.8627052   9.0739119  54.6462154  58.9159727   9.6187592  53.8610172
  57.9397917   9.1062653  54.8980379  10.6549466  56.4855671  57.1406555
  10.2286100  56.4466333  56.2845278  10.4437363  55.6473351  57.5517416
  57.0106459  21.6383028  59.9525976  56.2278843  21.3850522  59.4633341
  56.7392206  22.4037337  60.4592276  40.0006342  76.2495232  43.1916904
  39.3466949  76.1715603  42.4970579  40.3214598  75.3568506  43.3198929
  32.0765591  73.0393219  51.8882656  32.9167557  72.8309345  52.2967720
  32.0738053  73.9940643  51.8197441  48.1204939  74.8269987  61.3641167
  47.9060078  75.0408554  62.2721291  48.3079290  75.6726551  60.9567308
  82.3092079  31.8170357  52.2638798  81.8096066  32.0318747  51.4761782
  83.1793785  31.5848136  51.9396877  85.5671120   0.3835144  66.6071844
  86.3624668   0.8610018  66.8430805  84.8632526   1.0235393  66.7129564
  55.7169962  78.8408852  67.4398756  55.4639769  78.7754345  68.3607054
  56.0279655  79.7406721  67.3403025  45.4612541  45.4248571  69.1041470
  44.6366930  44.9773836  68.9141607  45.3672647  45.7268095  70.0075960
  82.8902626   8.7041873  62.1833181  83.4817028   7.9515803  62.1877146
  82.7325535   8.8902837  63.1089115   0.6650456   8.5424936  63.7399769
   0.7512509   9.1321647  62.9909182   1.1225027   8.9905894  64.4514370
  18.6288881  69.1449881  27.1551609  18.5184956  68.6237288  26.3599658
  17.8406084  69.6862888  27.1980715  39.8773837  64.9478436  61.3498354
  39.7051668  65.5342913  62.0864820  39.0147161  64.7800398  60.9705210
  18.3380330  62.9860497  47.9331398  19.2610288  62.7646923  48.0568838
  18.0646944  62.4613667  47.1806622  35.0000095  62.6160765  47.3880148
  34.7912073  62.4799919  48.3122015  35.7650590  63.1912613  47.3974895
   1.1118352  54.8538876  59.1230726   0.5439375  54.6129417  58.3911800
   1.9808319  54.9447012  58.7321377  22.5789952  74.2806435  54.6753454
  22.9980350  73.4583664  54.4213724  22.6754642  74.8454428  53.9085817
  23.7353969  34.6290064   3.5026285  24.2554188  34.0411711   2.9546678
  24.3140602  35.3722453   3.6728543  44.1545105  70.1872158  65.2266932
  43.3524752  70.5224514  64.8259497  44.8391438  70.7868958  64.9302244
  35.4432178  66.1822605  62.9129219  35.1504827  65.8713150  63.7695742
  36.0855937  66.8633890  63.1120491  33.4099507  69.4448566  58.1343460
  32.9257584  68.6488676  58.3538628  33.0685091  69.7045994  57.2786665
   9.0677834  37.8370762   1.0451684   8.1523585  37.7341413   1.3052334
   9.1649115  37.2692251   0.2807450  69.1370726  21.5120888  53.4296083
  68.8811350  21.4981937  52.5073624  68.3778477  21.8780112  53.8833809
   5.3848201  48.8645267  22.4397874   5.2945101  49.8171949  22.4621129
   5.1866007  48.5841465  23.3332777  44.3817663   3.6704987  49.0067720
  44.4107914   4.5639360  48.6644888  43.8667727   3.1840172  48.3630753
  22.2209358  11.4696181  43.3696795  22.3710847  11.6728854  44.2929173
  22.6723790  10.6369901  43.2312536  82.6906872  15.1996648  59.5898199
  82.4432373  15.7213819  58.8263988  83.5971069  15.4505789  59.7677946
  35.5035353  73.5150766  46.0150433  35.6668329  72.6075315  46.2717962
  36.3244915  73.8023376  45.6153631  72.5600052   9.4108903  44.9346828
  72.6773024   9.6758950  45.8469582  73.3360910   9.7465730  44.4860792
  48.5520935   6.3197720  57.4024200  48.3462763   5.7159799  58.1160736
  49.1952515   6.9221145  57.7762699  37.7056980  63.6387062  35.6291103
  36.9265532  63.3503342  36.1045122  37.3893881  64.3305397  35.0481176
   0.8972507   3.6039871  64.4664383   1.5358545   3.0965465  64.9673557
   0.1140084   3.6131838  65.0165987  71.7763948  19.7726989  64.4523525
  70.9904671  20.0776720  64.9057150  71.6992474  20.1345205  63.5695362
  54.0740776  19.4694197  67.3580170  53.9090109  18.5876238  67.6918173
  54.1587687  19.3552351  66.4114332  20.7601023  39.5786929   1.0889908
  19.8256636  39.5925498   0.8819573  20.9050465  40.3777742   1.5956374
  83.7407875  49.8927641   9.1334641  83.3933640  49.3391275   9.8327607
  82.9857635  50.0733757   8.5735017  78.2713747  10.1793635  57.3088026
  78.4797096  10.2764511  58.2379961  77.4259329   9.7306365  57.2985172
  38.6593056  76.8491840  69.0076160  39.1823769  77.5976515  68.7205124
  37.8865790  76.8663073  68.4429646  67.1733427  12.7090621  48.1078625
  67.5925159  11.9093692  48.4256983  67.7773190  13.4099030  48.3533525
  27.5332212  55.7654715   0.0260998  28.4881902  55.7647276  -0.0392347
  27.3041558  54.8519945   0.1973409  61.4166784  13.3072233  53.9598322
  61.6596460  12.4075937  54.1786098  61.2889576  13.7336457  54.8072290
  46.8827295  69.9810791  59.5937204  46.7383575  69.6867800  60.4930401
  46.8460846  70.9361744  59.6454620  15.6550360  23.5062647   3.7082428
  15.2013421  23.5007143   4.5510733  16.1527646  24.3238807   3.7095401
  15.2988315  47.6143694   2.8536111  16.1448002  47.3259401   3.1962162
  14.6581876  47.0612574   3.3006841  64.6965551  79.8332834  50.1605368
  64.2143583  79.0627050  50.4604149  64.2204475  80.5744553  50.5349874
  20.5524135  18.5264874  36.4050460  20.3123856  18.9882231  37.2084260
  19.8281991  17.9195619  36.2521243  15.5566359  46.7004061  18.5456574
  15.3676784  46.2276745  17.7350700  15.9690404  47.5147104  18.2574558
  16.2185693  10.6882346  47.3911285  15.7684517  10.2483106  48.1123066
  16.7467272  10.0015569  46.9840002  65.7468891  80.3188324  43.1172991
  66.0035801  80.0747585  44.0065527  66.5709496  80.3555298  42.6316881
  54.1781998  78.4294653  60.1650381  54.3318748  77.5079632  60.3734684
  54.6664572  78.9107656  60.8330059  65.4982090  26.7725515  42.3207855
  65.0422716  25.9846044  42.0249939  66.2641382  26.4436722  42.7913427
  55.4935122  79.5278931  58.0540180  55.9140110  80.2101040  58.5774660
  55.0409365  78.9792538  58.6946440  72.6758289  27.4904537  64.6606684
  72.7578926  27.3896408  65.6090021  71.7504787  27.6911044  64.5203209
   7.4745125   0.6017873  32.6916718   6.9381469  -0.0089338  32.1861386
   7.2892308   0.3837885  33.6051154  66.4131212   1.5642422  33.5065508
  66.1595154   2.0148349  34.3120837  66.1640120   2.1672906  32.8061867
  71.6489220  10.3927517  58.4918118  70.7023621  10.4169166  58.6320448
  71.8239737  11.1331582  57.9109621  83.0464554   1.8437792  63.8148451
  82.4701595   1.0823163  63.7492847  82.8863811   2.3353629  63.0092669
  29.4936800  55.8974552   9.1050887  29.6258664  55.4828691   9.9576575
  29.1165519  56.7528868   9.3106347   6.1726826   2.9569519  52.3502302
   6.0595918   2.6606986  53.2533789   7.1184510   2.9285550  52.2054958
  85.6005383  24.7186565  19.4561255  85.0122166  23.9887643  19.6494353
  85.6775856  24.7179699  18.5020316  15.6436765   2.0506720  50.4014921
  15.4486215   1.8109559  49.4955587  15.1656067   2.8680843  50.5412006
   1.4135082  42.0395231  31.5707922   1.8383205  41.4948034  32.2333980
   0.8171674  41.4437246  31.1173224   2.6445961   5.9563649  52.9812384
   2.2239959   6.7542636  53.3016825   1.9554618   5.4994333  52.4990177
  63.1532001  80.7698727  34.5942688  62.6548290  80.7278442  35.4104114
  63.4842110  79.8804045  34.4696903  29.4293094  17.6558387  57.8718805
  28.6017609  17.4915528  57.4197674  29.9342322  16.8523335  57.7467251
  79.8440361  22.1764803  47.8909588  80.0742054  23.0135584  47.4877834
  79.8853779  21.5452290  47.1725988  59.1522360  73.0945015  37.7590060
  59.8939848  73.3054304  38.3260560  59.0825939  73.8435698  37.1671653
  10.7814574  22.0327044  50.5811739  11.6735721  22.3367882  50.4141474
  10.2225566  22.7294636  50.2370977  27.8306866   7.1637183  56.3594675
  27.5389171   8.0748284  56.3281488  27.0289373   6.6516942  56.2533379
   6.1181372   3.0406958  37.6105928   5.5220419   3.5371333  38.1713510
   6.9477373   3.0356950  38.0880547  43.0917501  10.8122933  43.8710308
  43.4550858  10.3295982  43.1285906  43.8360071  10.9441304  44.4583368
  81.7928410  25.5287933  37.4266171  81.3223267  25.7506061  36.6230917
  81.5525246  24.6188974  37.6014733  77.2798014   0.5532341  30.1369381
  78.1789207   0.2260583  30.1091385  76.7515326  -0.1688949  29.7968054
  60.8751249  48.7393951  67.4959803  59.9466085  48.5134029  67.4411249
  61.3325739  47.9179811  67.3163891  84.9052143   8.3017516  25.3841400
  84.3321228   9.0684032  25.3904843  84.3072796   7.5561732  25.3310943
  68.3314276  79.0519857  59.0905905  68.9272022  79.7917175  59.2092562
  68.8545322  78.3942699  58.6323357  82.6598549  17.8989732  30.7390141
  81.8210888  17.9489219  30.2805352  82.8855228  16.9688630  30.7248735
   8.1415749  14.1393232  42.7287436   7.3484582  14.6197534  42.4912882
   8.7974179  14.8198199  42.8804874  54.9293566  42.6302719  12.7781129
  55.0502968  41.7456102  13.1230450  54.3322277  42.5193262  12.0382738
  26.5127254   4.5130038  40.0895548  27.3399758   4.6717286  39.6349168
  26.5898657   3.6186966  40.4219627  44.0855837  12.9492831  47.9856586
  43.2762527  12.4746299  47.7961302  43.8091803  13.6859012  48.5308409
  13.3469248  34.7256589   5.8971769  13.1141150  35.1171803   6.7390448
  14.2890096  34.5678234   5.9587801  85.1082230  17.9304183  55.4521084
  84.4584084  18.1205761  54.7754908  85.7961559  18.5813260  55.3131866
  47.1378326  75.1656771  43.1588030  46.7749691  74.5593309  42.5131226
  46.9587612  74.7518396  44.0031385  75.2552652  74.8387146  54.3635798
  74.3387985  75.0865650  54.4856071  75.7114029  75.6687117  54.2247438
  84.6110630  17.3442674  45.1650476  84.8135662  16.6520071  44.5357656
  83.7923336  17.0640314  45.5741692  53.8173723  77.9089308  34.3408275
  53.5844040  78.1847191  35.2273369  54.5017862  78.5215282  34.0715027
  37.5890088  63.8304138   3.3934131  36.7342353  63.4961319   3.1216627
  37.4624228  64.1005373   4.3029404  46.4637423  68.2358503  49.2874813
  47.0250845  68.7582731  48.7145901  45.7517433  67.9400063  48.7202358
   6.5765405  20.4076695  26.7364073   7.0412838  19.5713151  26.7639351
   7.0703268  20.9756422  27.3278570  79.0885687   8.2371718  34.2677045
  79.5171690   8.9161694  33.7466550  79.7720861   7.9217666  34.8589349
  75.4252863  73.7385082  50.5097961  76.0784769  73.1994629  50.0637007
  75.9304857  74.4491720  50.9047174  16.7397535  23.6788154  27.6171994
  17.6609254  23.5318279  27.8318357  16.2695587  23.4708238  28.4245944
  23.8731837  24.3498015  63.0582809  23.4611535  25.2027011  62.9203367
  24.7719121  24.5566368  63.3146715  15.4153562  24.6916056  45.3332710
  14.8468375  25.2165008  44.7697926  15.5053008  23.8574982  44.8723936
  69.5842743  14.1032732  25.8245707  69.1388750  13.9770460  26.6623759
  68.9369345  14.5424891  25.2729583  13.6497986  45.2187252  47.7309990
  13.7850404  45.5370474  46.8384695  14.5325315  45.1333427  48.0911732
   2.6718184  19.2883456  50.2828836   3.1498593  20.0393057  49.9310780
   3.1612277  18.5263276  49.9729824  30.7700229  21.4471364  31.0546756
  30.7133675  21.6944599  30.1317167  29.9324727  21.7216182  31.4280391
   3.9750588  32.2340941  69.8244476   3.3791560  31.4855623  69.7955656
   3.5940352  32.8671813  69.2159653  53.1771612  44.3605042   5.1167738
  54.1017818  44.5984459   5.1852596  52.8641176  44.3531132   6.0213065
  15.4471362  21.8308496  33.3065176  15.1403141  21.3030648  32.5692677
  16.3462031  22.0647550  33.0758691  78.1784058   5.2553827  30.7218099
  78.1286192   4.8336431  31.5796494  77.5320911   4.7919014  30.1891828
  14.0293908  13.3025861  40.9077311  14.1766334  12.9245782  41.7747164
  13.2096207  12.9078543  40.6104183   2.1237721  13.7419248  35.6971550
   1.6623448  13.0970728  36.2333298   2.4422531  13.2437015  34.9444437
  18.1587863  12.1958101  27.2455215  18.5403192  11.4969695  27.7768278
  17.2947311  12.3442328  27.6297235  74.8456478  79.5003271  48.1197309
  74.3515873  79.7778225  48.8911772  74.9223042  80.2918339  47.5869370
  12.3705721  10.1844752  20.7390141  11.6105843  10.4841530  20.2401710
  12.0111561   9.9149036  21.5842247  82.0792961  20.7222509  28.3767653
  81.7201805  19.8446739  28.5076427  82.6682949  20.6307745  27.6278043
  27.8824711   7.1163583  42.9083776  27.8319263   7.5795072  43.7445402
  27.8212476   7.8066844  42.2481251  26.9286251   1.6552308  35.8019590
  26.8074727   2.3496509  36.4495182  26.1316657   1.1286407  35.8635139
   4.0616098  72.5229979  38.7643433   3.5874555  71.7619324  38.4294009
   4.9197096  72.4750996  38.3429146   9.9645203  16.5030873  42.8036833
   9.8328638  16.7128098  41.8790674  10.9018290  16.3235235  42.8774405
  16.9816077  18.4776592  43.8028097  17.4641776  18.0118656  44.4857359
  17.6407933  19.0226102  43.3729982  70.0966215  25.3893185  56.6730022
  70.1629019  24.7272611  55.9848738  70.7350922  26.0577869  56.4245272
  83.0244541  41.9567394  33.0423903  83.9163494  42.2803450  33.1689978
  82.8151894  42.1798897  32.1353936   9.3918395  15.6286585  28.2944608
   9.0177286  14.8823202  27.8262186   8.7072974  15.8935058  28.9088631
  10.4629672  22.6615715  60.3650379  10.9807432  22.1141338  59.7747421
  11.0268664  23.4120989  60.5520105  60.3709078  21.8761182  65.6107092
  60.8030748  22.5738835  66.1032391  59.4756699  21.8630648  65.9492445
   2.8898641  11.9321895  33.7235379   3.2933044  12.0776486  32.8677893
   2.2750884  11.2128234  33.5793352   8.1447542   8.2936007  48.4269142
   8.1869280   9.2480141  48.3673477   8.9656341   7.9927921  48.0371666
   9.3233454   6.7251027  53.8027430  10.1302040   6.2392372  53.6320210
   9.5317698   7.6277381  53.5618258  65.6590223  15.0071537  50.7240868
  65.3544807  15.3884172  49.9006033  65.3969765  14.0878952  50.6737900
  29.3812537  19.5275033  54.3545341  29.6577334  19.5180261  55.2708864
  28.4253836  19.4941521  54.3924046   0.4904109   6.9384158  54.2266464
   0.2025798   7.6250196  54.8282814   0.5857708   7.3826939  53.3841801
  75.5646467  77.5299454  54.0989733  75.1722622  78.1767702  54.6853876
  75.5685234  77.9552698  53.2414675   5.3790849  11.7812133  59.5780993
   4.7048530  11.5516019  58.9386272   6.1891747  11.8174005  59.0694952
  28.2428694  64.3029165   7.6387608  29.1166401  64.6804953   7.7397197
  27.9722929  64.0834951   8.5303175   8.2181072  19.9622118  41.8651533
   8.4389472  19.1629815  41.3869381   8.9591211  20.1008964  42.4549818
  74.5261335  74.7972345  66.2123489  73.7876177  75.3685999  66.0016918
  74.6310759  74.8810482  67.1600771  81.3072491  79.5788240  55.7758951
  80.5343246  79.0233183  55.8770800  81.6254616  79.7114277  56.6688633
  18.9673293   9.7709727  41.4838314  19.2581606  10.6826174  41.5073156
  19.4873607   9.3715566  40.7865047  45.3248405  22.8619003  59.8273373
  44.8356009  22.8200078  60.6489897  45.4682207  21.9465208  59.5870161
  81.2724304   9.5960611  36.8276048  80.6528568  10.2937639  36.6141367
  81.8718624   9.5715714  36.0817432  42.4350166  66.7162704   0.6674660
  41.7195177  67.2978783   0.4105184  43.0592728  67.2876549   1.1147453
  85.7966805  21.4360642  61.6549397  85.9166527  20.5930519  62.0921707
  84.9801350  21.3378072  61.1652088  25.6976295  19.9487245  66.3309669
  25.4401731  20.4120588  65.5339289  25.3754616  20.5006933  67.0435429
  72.2310638   3.0217716  28.5642958  72.8193283   2.9982501  27.8095627
  72.3744774   2.1847381  29.0059280  28.6245680  30.1610780  53.5360813
  28.8888431  31.0635328  53.7148666  27.9163694  29.9913597  54.1572762
  70.4100657  78.5489893  49.3526983  70.6175900  79.3412495  48.8572264
  70.1734352  77.9044819  48.6857319  14.0353298   4.5256567  66.9484758
  14.1345859   3.6025903  67.1815586  13.9107156   4.9721014  67.7859640
  50.7282162  74.0691948  60.7693338  50.8897305  74.5773077  59.9743700
  49.7753620  73.9892960  60.8130646   0.3656489  79.5380926  46.2879753
   0.9695635  79.0416956  45.7356071  -0.0742174  80.1366234  45.6842279
  46.3954496  79.1815329  37.1144915  46.5902233  79.3266392  38.0403638
  45.5451345  79.6000481  36.9801617   1.9868542   6.3907844  37.1598768
   2.3305002   7.1277934  36.6549444   1.3060915   6.0148019  36.6018152
  26.3197565  28.3391500  51.8865871  25.9088087  27.5461030  51.5424442
  27.2331834  28.0921865  52.0311308  73.4430885  20.0221848  52.1710205
  72.7459002  20.5429101  52.5697756  73.8414478  19.5536005  52.9044867
  84.1756344  27.5854039  53.6878395  85.0634193  27.7170205  54.0206194
  83.8646317  26.8005729  54.1390085  83.0385113  11.0046256  41.6574001
  82.6869297  10.6298864  40.8498144  82.8197765  11.9350111  41.6047907
  15.3942585  27.9932690  27.2497702  14.4806468  27.7116466  27.2025180
  15.8961391  27.2247410  26.9782686  10.8072567  35.7834721  31.9283271
  11.5458786  36.2487650  32.3209763  10.4381859  36.4056182  31.3014650
  13.3707368  23.6815739  38.4387445  14.1237867  23.9807272  38.9483094
  13.7378764  23.4389400  37.5887036  71.0179615  79.2399645  51.7981863
  70.8177710  78.9686918  50.9023285  71.1887741  78.4212875  52.2638273
  19.3046808  18.6179960  30.7216763  18.9747083  18.5902131  31.6197729
  20.1503968  18.1716073  30.7633185   4.1399083   5.4062754  46.4034462
   4.9395597   5.7281470  46.8196058   4.4469672   4.9225456  45.6366682
  24.8387980   6.5162855  29.9113607  24.7437096   7.4685550  29.8920774
  24.6036983   6.2701744  30.8060050   9.7164959  42.1941090  31.7823529
   9.0904450  41.5694761  32.1485877   9.7276932  42.9174376  32.4091744
  18.0517304  28.2035065  21.0158849  17.6752126  29.0823388  21.0619020
  18.8094449  28.2366848  21.5998363  78.6016846  17.1118164  68.7977695
  79.0265179  16.2781882  68.5957527  79.2242765  17.5666654  69.3649721
   0.3520626  25.1084685  54.5807266  -0.0700129  24.5690751  53.9120436
   0.3827685  24.5481467  55.3561831  30.4166555  16.4385271  27.2868299
  29.5344353  16.4438879  26.9154930  30.7841802  17.2881520  27.0433259
  47.0297813  50.7962465   0.5304533  47.8931189  50.6692219   0.1370750
  47.1512747  51.5186071   1.1466271  85.3045082  12.1663964  25.0515509
  85.3508949  13.0998778  24.8449302  86.1066055  11.7987907  24.6804190
  23.0583048  22.3216558  49.8810005  22.6050401  23.0340910  50.3317976
  22.6968789  22.3307180  48.9947033  71.3826942  63.0349064  58.0210447
  71.8649244  62.3637104  58.5039330  70.6051636  63.2012558  58.5539627
  46.0152960  55.6190014   2.4717768  46.1341810  55.7392550   3.4139222
  46.1496782  56.4908457   2.1002033  14.1956842  10.8096027  25.4487443
  13.5730028  11.3029730  25.9826779  14.5613027  10.1584005  26.0474849
  36.3525748  17.7801859  29.4808578  36.4743972  18.7295949  29.4770336
  35.8933711  17.5943327  28.6618209   3.0737457  31.7930508  43.1990004
   2.5088823  31.9948435  42.4530506   2.5733531  32.0799828  43.9628792
  16.9690704  27.3681188  30.2885056  16.9011045  28.1289864  29.7117090
  16.4151549  27.5856709  31.0382247   9.6256357  23.0510855  23.7965989
  10.0367296  23.6987519  24.3691015   9.8330337  22.2084284  24.2005110
  54.9828339  80.1983738  33.2034659  54.7351837  80.3240871  32.2874427
  55.8359194  80.6254005  33.2817197  18.6244631  22.5470161  41.9659710
  18.8887239  22.7370214  42.8661346  18.9732981  23.2772183  41.4547443
   9.4664532   2.2667012  45.8337259   9.8410177   1.4670902  45.4641914
   8.9070290   1.9613215  46.5478849  33.2964969  14.1920066  50.0305176
  32.6753306  14.9199533  50.0523758  32.8649306  13.4940100  50.5232477
  31.8788314  56.4015198  69.3350315  31.9197536  56.1182642  70.2484417
  31.4018655  55.7020044  68.8884783  13.2052898   2.5833291  34.6346307
  13.3749855   3.1322229  35.4002357  12.4496520   2.9903454  34.2108607
  20.4380965   5.4330105  50.6098509  19.7128558   5.8054572  50.1083136
  21.1488748   6.0662019  50.5093718  85.6427670  20.5718255  37.2415996
  85.4880810  19.6516907  37.4552751  85.3142929  21.0526252  38.0013156
  21.4956880  46.5060949  12.5312352  21.2952042  46.2202692  11.6399765
  22.3348951  46.0920143  12.7324867  11.4849937   5.9478623  36.3634086
  12.3398411   5.6930959  36.7106271  11.6686821   6.7035758  35.8053875
  80.5479050   0.6828823  53.8152456  81.4174938   0.9195749  54.1377735
  80.1430702   1.5185003  53.5826874  59.0604162  60.1228046  52.2866249
  58.4945869  59.4593239  51.8918276  58.6994362  60.2545357  53.1633091
  30.0349736   7.9438782  60.8318138  29.3443537   8.6023331  60.9073925
  30.1374269   7.8113347  59.8893833  42.8899908  67.7400112  42.5711489
  43.4965467  68.4410858  42.3327780  42.1989870  68.1793785  43.0668354
  12.4781489  24.4500041  29.6036053  12.9814827  24.6734095  28.8206768
  12.5826097  25.2072811  30.1796722  15.6193566  20.0795245  37.7141857
  15.1540196  20.7404661  38.2268763  16.2859726  19.7391593  38.3108497
  65.9735394  71.1649370  50.6624746  65.5916023  71.1806726  51.5400362
  65.2336693  71.3239813  50.0763655  28.2604647  58.5980225  33.3008814
  28.5388184  58.9139843  32.4412799  27.6985478  57.8470898  33.1096101
  76.2114954  77.2733307  26.5126157  76.5930319  76.5907240  27.0646214
  76.1014986  76.8565702  25.6579566  62.5324345  42.4077988  62.8457069
  62.4118471  41.9979572  63.7022829  62.8749084  43.2795048  63.0433559
  30.0137711  21.7296124  28.3659053  29.0837622  21.5336728  28.4795976
  30.0311232  22.6314878  28.0456686  24.6141052  26.0829759  22.4690175
  24.3612361  26.9250083  22.8475285  23.7888241  25.6915092  22.1828413
  11.3136315  11.7531657  48.1811428  12.0052707  11.6082621  47.5354862
  11.5886140  12.5383222  48.6545801   8.0419040  14.3053520  66.9032907
   8.9065146  14.0104198  66.6174650   7.5699490  14.4867814  66.0905361
   6.1520135  28.1751657  44.4498396   6.3048726  27.7490401  43.6064625
   5.9005266  29.0706134  44.2236614   0.0379019  45.0994539  50.9651423
   0.5166119  45.9084177  51.1458158   0.7147832  44.4236279  50.9287739
  11.3343954  40.4225349  30.3237486  10.6705689  39.7975874  30.0321865
  10.9128344  40.9055662  31.0345197  21.0183954  41.5376425  62.5032234
  21.7520523  41.9264460  62.9794693  20.7568240  40.7875061  63.0371809
  10.4620671  32.1795416  50.6774569  11.1172760  31.5783954  50.3231192
  10.0844944  32.6036143  49.9068546   7.8650326  23.1007981  57.3803806
   8.4328699  22.6651502  58.0159950   7.9943293  24.0349293  57.5444365
   2.4159464  20.1754689  43.0433559   1.7827094  19.6768427  42.5270081
   2.3867357  19.7733486  43.9115047  19.2003608  11.1673939  30.1999617
  19.1109419  10.3127706  29.7782326  20.1312113  11.3765252  30.1224160
   8.7321734  30.7824707  16.0764086   8.4970713  30.7281971  15.1501191
   8.2233524  31.5215349  16.4097536  22.3217559  38.9517784  62.2380018
  21.4587021  38.9596343  62.6518965  22.6100087  38.0412889  62.3024368
  76.0374403  28.7790775  40.7686949  76.6603518  28.3809566  41.3767385
  75.7373810  29.5698810  41.2168312  15.3426933  22.6986456  58.3038902
  15.0317872  23.5933065  58.1655025  16.0053039  22.7787876  58.9900064
  36.2252045  58.1742144  11.8383145  36.5942144  57.3481274  11.5258420
  36.0535741  58.0234718  12.7678585  36.9371438  57.2258472   4.1685027
  36.6464710  56.6042185   3.5011822  36.7320776  58.0854225   3.8006577
  33.7764406  13.3829534  30.6940937  32.9296827  12.9578805  30.5579090
  33.5586929  14.2960405  30.8814168  29.9248695  31.7998052  56.5357876
  29.8207808  30.8858562  56.8005466  30.4159141  32.2022438  57.2521305
   2.0917903  40.5076313  39.8192644   1.4578407  39.8049808  39.9628639
   1.5813912  41.3125277  39.9079442   8.5265309  74.6144915  46.7131567
   9.1558039  74.0254974  47.1294880   8.9234996  74.8316097  45.8696461
  76.1214828  30.8887935  56.8140984  75.4523945  30.2125788  56.7078590
  75.9089136  31.5427732  56.1482477  74.0094090  36.0623622  39.9693322
  73.3762550  36.0250902  39.2524266  73.5323858  36.4757013  40.6889343
  13.2940149  28.6343813  66.4208221  12.7861786  27.9357338  66.8334055
  13.8293171  28.9918089  67.1292925  31.1826539  12.0605361  30.6017399
  31.6104746  11.7750978  29.7944450  30.3806901  12.4926949  30.3079343
   9.6259511   0.3785539  60.3921843   9.6667558   0.4937040  59.4428110
   9.6536237   1.2687835  60.7428360   3.8105088  45.7700396  36.0986018
   4.5697141  45.2114725  36.2654543   4.1827142  46.6349173  35.9262991
  17.0903313  45.3120995  41.0701704  16.6830289  45.0020123  40.2613592
  17.9800212  44.9602413  41.0404921   7.3961878   9.4646728  51.2017393
   8.1089133   9.0936643  50.6815386   7.1893650   8.7853444  51.8435860
  21.3408160  28.6799145  57.6507664  21.0385919  28.0359316  57.0103168
  20.7686996  29.4358563  57.5186062  22.4721026  45.0762510  40.6905556
  22.9559040  44.3541002  41.0913849  22.9134679  45.8647156  41.0063934
  18.3719003   9.2872548  63.1851292  17.6278770   9.7464633  62.7955294
  18.3318377   8.4066319  62.8121281  71.6880941  32.1617079  38.5142422
  72.0727253  31.4271450  38.0360103  72.4170065  32.7670813  38.6500335
  13.2632363  23.7147903  18.2388103  14.0082085  24.3142962  18.1959069
  12.5256681  24.2249656  17.9042220  32.0011950  75.4138756   4.7149566
  31.3086772  75.9653759   4.3509573  31.5492058  74.8370409   5.3307498
  20.0940704  27.6998758  38.6968756  20.4591727  27.3094749  39.4909286
  19.1646576  27.8174925  38.8933206   0.3430379  20.1292586  34.5245051
  -0.3150222  20.3820658  35.1720214   0.3836694  20.8717966  33.9218307
  18.5296774  25.5800557  40.0615120  17.9398096  26.2259555  39.6727991
  19.0596223  26.0818267  40.6808805  84.8031235  43.0150700  48.6559868
  85.3854370  43.5692263  49.1756535  84.5842552  43.5481119  47.8916597
  23.2242489  15.9365225  67.3774719  22.4859548  15.9356081  67.9866886
  23.2021236  16.8050122  66.9756413  79.8466587  65.9428549  41.3905621
  80.2752018  65.5909252  40.6103516  79.0652657  65.4008675  41.4996862
  60.9285116  71.4503098  69.0037012  61.4258289  70.7525253  68.5770798
  61.2571049  71.4634466  69.9026394  12.1313632  31.2527442  47.4022436
  11.3693094  31.5549660  46.9081068  12.6183152  32.0517659  47.6039267
  21.8449473  15.4023695  50.6311417  22.6510239  15.9057546  50.7454872
  21.1435127  16.0344470  50.7882977  83.5964298   4.2418265  56.7104912
  83.7198639   4.5726797  55.8208132  83.0728245   4.9146044  57.1457291
  26.4046931  16.6698980  33.7091088  25.5341482  16.7174876  34.1042280
  26.7324686  17.5685966  33.7428045  26.2873292  22.3795867  36.0755610
  26.5929985  21.4822936  36.2084532  25.5050302  22.2880363  35.5316305
  83.6233807  12.0277333  49.1844463  83.6710644  11.3236427  48.5377550
  84.3427181  11.8464613  49.7893620  15.8965302  31.9385290  33.5335183
  15.6951797  31.1107707  33.0970502  16.5538383  32.3510718  32.9731750
   8.1965101  15.8356023  52.8136158   8.0030316  16.5872228  53.3738518
   9.1470325  15.7358706  52.8664637  24.0564275  17.0041823  50.0640821
  23.6593318  17.8737998  50.1121855  24.4713306  16.9776988  49.2018843
  85.6371784  23.7785292  47.0013809  85.9739971  22.8852439  46.9319296
  85.9411144  24.2117906  46.2037945  25.7742405  22.9789305  49.6419811
  26.0522485  22.1617246  49.2283201  24.8736644  22.8122640  49.9202204
   4.7237045  27.1245790  27.5353742   4.4621423  27.5968099  26.7449236
   5.4748350  26.5978813  27.2622013  50.0448513  77.7060270  27.0257878
  50.4983139  78.5384846  26.8930578  49.2334080  77.7928829  26.5255404
   4.5124087  51.4729452  66.6121578   4.0205455  52.2822380  66.4730740
   4.5427859  51.3716173  67.5634956  13.4105575  14.6467566  37.5864363
  14.1709566  14.8456967  38.1327415  12.6910353  15.1303971  37.9921603
   5.8793962  56.2647104  44.0278578   6.4194685  57.0156670  43.7816525
   6.3813221  55.8230257  44.7128534  19.6645379  28.5730600  44.8213100
  18.8461649  28.7938523  44.3766212  20.1798034  28.1117392  44.1595554
  11.0421824  10.3053176  24.9399710  10.1886904  10.1461887  24.5369053
  11.5172124   9.4818884  24.8279762  75.3821135  78.3784914  43.7173223
  74.8897028  79.1992331  43.7054253  76.2720966  78.6365891  43.9572096
  82.1662903  59.3548393  27.1248031  82.7964783  59.9861717  27.4719667
  81.5208912  59.2513990  27.8240800  12.2803402  41.9360495  63.5396624
  13.0336213  41.4637613  63.8942671  12.4653745  42.0138884  62.6037502
  74.8536825   2.4904501  19.7110295  75.3708696   3.2791477  19.8744559
  74.0313339   2.8150436  19.3441331  26.3685083  14.8204112  46.4719152
  26.9550109  15.0604367  45.7545328  25.5162239  14.6980166  46.0537481
  34.5228529   6.4523959  60.3455973  35.0585890   6.0210210  59.6799135
  34.4478607   5.8065987  61.0481310  23.3867836  29.0375590  63.2589722
  23.4099913  28.1724405  62.8499937  22.8360105  28.9217639  64.0332270
   6.3456249  28.3256459  35.6911111   6.8871033  28.1785178  36.4666009
   6.8351352  27.9184198  34.9764228  75.0955248  76.9559050  41.2784672
  76.0054970  76.6673994  41.2081003  75.0057650  77.2460461  42.1862078
   8.3259082   6.3800460  63.0308676   7.9845041   5.4974061  63.1744719
   7.9783499   6.6351843  62.1762705  83.1914711  49.2126942  24.7790122
  83.0792427  49.6863079  25.6032228  83.8129616  48.5148764  24.9864674
   5.5746293  16.0685968  35.6423998   6.2015766  15.4307961  35.9835434
   6.0068834  16.9147801  35.7579994   5.2612382  14.8260903  32.6129842
   4.8040953  15.0875485  33.4122896   5.4585016  15.6509233  32.1691704
  13.3298409  20.0615549  53.0745077  12.8019845  19.6093082  52.4164248
  14.2350006  19.8800135  52.8216028   3.6407742   9.5632541  41.1403656
   2.7018365   9.3801707  41.1736584   3.7155116  10.3285182  40.5702639
  10.1782835  25.5040574  32.8272796  10.5597126  25.2956724  33.6801100
  10.9311533  25.5871129  32.2420263   6.1837518   6.1385292  20.1925087
   5.9023851   5.2383816  20.0288033   6.9468993   6.2575054  19.6271038
  38.2334161   2.2437197  36.1788702  37.9462862   3.0634657  35.7766199
  37.7218390   1.5671715  35.7352448  10.4266465  24.2892170  57.7307463
  10.6707919  24.9946547  57.1315956  10.3845310  24.7086883  58.5901117
  17.8104520   7.9172331  33.6505032  18.6984336   7.9592502  33.2956028
  17.3139298   7.4259865  32.9959989   9.4485134  34.9165249  37.4698687
   9.7313732  34.9819279  36.5577579   8.9067841  35.6933308  37.6089215
  24.1913939  19.6939373  41.6528082  24.2177725  20.3057861  40.9171629
  23.8860559  18.8716531  41.2695980   4.3275571  34.4985962  41.4058876
   4.8692009  35.0499392  41.9705725   3.5433891  34.3211317  41.9253254
  85.4818535  33.1890535  55.0300169  86.3658905  32.8600073  55.1925802
  84.9308872  32.7121735  55.6507015   0.0743581  42.2704220  45.7762241
   0.8765829  42.7141142  46.0515499   0.3434104  41.3655853  45.6177521
  20.0983143  16.4902544  40.2596521  20.6940103  16.0951436  39.6230459
  19.2291951  16.1917329  39.9917936   8.7218744  27.1157622  51.4143896
   7.8761262  26.9088078  51.8120241   9.3611991  26.6553855  51.9580364
  71.0113239  24.3680716  65.5488586  70.5867815  23.7408400  66.1341619
  71.8515587  24.5553994  65.9673595   8.4626836  26.5121150  35.9360647
   9.3234998  26.0935330  35.9399915   8.3416814  26.8194079  36.8344879
  11.3837159  20.5343103  63.4490681  11.2808704  19.9733365  64.2178106
  10.6545699  21.1520123  63.5040474   0.4725699  44.1617537  22.9873824
   0.9590672  43.7611294  23.7078333   0.9492748  44.9695492  22.7964592
  16.5625978  33.5722256  61.3623285  16.7721665  34.0126967  60.5387402
  15.6454551  33.7925935  61.5251780  82.8247166  22.4952054  55.3422546
  83.6904049  22.3503137  55.7241201  82.2424603  22.5865006  56.0964966
  12.4160397  19.0236032  49.5864534  11.8946838  19.4520104  50.2653408
  12.3421502  18.0894089  49.7815228   6.1896622  12.0200717  42.3091269
   5.4211152  12.5099063  42.6017523   6.8225014  12.6936889  42.0601559
  84.3899632  18.2495797  38.0728889  84.2741013  17.3228955  38.2828069
  83.6088467  18.6748159  38.4268212  25.5327463   9.4553524  28.9531994
  25.9738278   9.6155632  29.7874737  24.6065307   9.3796915  29.1826200
   9.8177165  15.1605284  45.4077435   9.8395151  16.0963154  45.2075911
   9.3731767  15.1068401  46.2537527  12.4009228  13.8573349  32.3781896
  11.8109906  14.2091894  33.0448294  12.7807939  14.6311235  31.9620395
  14.5328486  14.8601723  54.1942978  14.2126524  13.9660144  54.0751934
  14.2940259  15.0822151  55.0942421   8.1419820  11.0652566  43.9877987
   8.7781614  11.6558862  44.3911171   7.7649057  11.5735960  43.2697248
   7.1808982  45.7997799  43.3942890   6.6829050  46.2014914  42.6823473
   6.8821716  44.8905659  43.4122419   6.2829280  18.7781942  43.3280993
   6.8194473  17.9885840  43.3980656   6.7529768  19.3327522  42.7054024
  71.3206911  27.6417756  29.3111205  71.7106295  27.7905750  28.4497070
  71.9337130  28.0466819  29.9247074  33.3969665  11.1882746  41.2639904
  33.8098884  11.9885933  40.9396172  33.0980229  10.7362580  40.4749775
  30.5461884  18.1009269  42.9092979  31.3852382  17.7183211  43.1658936
  30.0608611  17.3740554  42.5189829   0.5653838  36.1340356  64.7745323
   0.4563352  37.0036697  64.3897200  -0.0611905  35.5838490  64.3044949
  10.5781972  40.6926870  60.0844240  11.0750639  41.4475441  60.3999329
  11.2389469  40.0163603  59.9353504   7.3221385  23.4922051  36.8210673
   8.1868815  23.0818987  36.8310690   7.4797583  24.3749905  36.4862847
  26.9047022   7.9297632  31.6800618  26.6525364   8.8528359  31.7041516
  27.0270920   7.7390999  30.7500625  10.4539204  51.8757248  41.7302179
  10.9737742  51.6006613  42.4854136  10.9117329  52.6451969  41.3917637
  79.8257351  57.6725578  40.9581947  80.0551414  57.1024990  40.2242804
  80.1175976  58.5425949  40.6860161   3.7814546  38.3946157  35.0185633
   3.0206686  38.7397504  35.4858112   4.5337605  38.7149739  35.5161953
  77.7626705  40.2406740  59.5606232  77.4022913  39.6252871  58.9221430
  78.1566715  40.9330606  59.0299702  14.2951012  22.0007849  45.8264399
  13.7557900  22.4862647  46.4506865  14.6666634  21.2826228  46.3387060
   9.0408403  10.2247369  31.1293888   8.8361144   9.3318397  30.8518004
   8.1977189  10.6778204  31.1197042  20.8058858  30.8368564  64.5428228
  20.0988746  30.5828047  63.9496756  21.1959434  30.0076914  64.8195410
   8.9079803  32.2409415  26.5110970   9.1558588  32.6919818  27.3181605
   8.4616220  31.4477277  26.8074203  24.6683526  43.1974888  35.3557134
  25.5857134  43.4090614  35.1827407  24.1746020  43.8626146  34.8760819
  12.8287303  28.8117957  32.6935148  12.4612904  29.2053938  31.9021249
  12.3483884  29.2243004  33.4113884  12.9244316  16.2178147  48.8177729
  12.7329016  16.6957104  48.0108261  13.8760066  16.1142433  48.8146877
  29.3592620  50.4929161  41.0366249  28.9019370  49.8814535  40.4593897
  29.1727829  51.3560486  40.6672239  18.2361114  39.3724704  46.7062950
  18.0097234  40.2703428  46.4637995  18.4015894  39.4132447  47.6482010
  26.6219163  61.8187380  28.6172867  25.8908463  62.0102596  28.0298448
  26.2272310  61.7882299  29.4887924  22.8720593  58.7185669  27.0818138
  23.4116912  59.4390345  26.7563081  22.3032665  58.4937191  26.3455033
  16.9414139  39.6370697  23.0085492  17.1226263  39.0049291  23.7041020
  16.5146303  39.1231132  22.3230290  27.4817109  66.1207581  25.6660295
  27.3859453  65.3658104  26.2466502  26.6153336  66.2336254  25.2750278
  20.9157300  43.4380913  34.6549773  21.2676764  42.6167536  34.9981546
  21.6650844  44.0335512  34.6435547  24.1151977  42.1672869  37.7693510
  24.9080753  41.9474173  38.2584691  24.4324946  42.6330709  36.9956589
  40.2027988  57.6316929  20.9743905  40.0714779  58.5640526  20.8020782
  39.3584394  57.3285532  21.3081408  31.0326385  56.7679167  30.2455354
  31.4572215  57.4183464  30.8049130  31.7279887  56.4626646  29.6628356
  14.3816197  39.3075442  27.3184967  14.6137786  40.0933743  27.8132749
  14.0049541  38.7165666  27.9704928  36.9644046  38.7773752  69.8677301
  37.4107146  39.0309310  69.0598011  37.2847056  37.8942275  70.0512695
  17.9334211  48.7140036  43.7361622  17.4893188  48.3894444  44.5195293
  17.2247982  49.0062332  43.1628466  16.1124372  61.1601019  24.3677330
  16.1695576  60.3633165  23.8403797  15.8971417  61.8487215  23.7387037
  24.8992252  57.3886108  47.1346903  24.3768835  56.6071320  46.9539022
  25.5276513  57.1080351  47.7999592  15.9502351  37.6615405  48.4920692
  15.5765748  38.5109043  48.2571411  16.8241978  37.8677869  48.8235521
  29.2903686  53.6170340  43.1091690  29.6027112  54.2590141  42.4715662
  28.3413315  53.5990524  42.9857206  22.6897621  62.1642256  33.3691716
  23.2922959  62.8731060  33.1440616  22.2015071  61.9996500  32.5624776
  34.4590950  57.4796438  39.5737171  33.7871575  58.1524277  39.6836758
  34.8423743  57.6619005  38.7157464  85.1321411  29.1141319  58.6353350
  84.3911839  29.1567707  58.0308628  85.5543613  29.9696398  58.5574055
  27.9976273  44.7762156  44.0384197  28.3624196  43.9285517  44.2926311
  27.0695901  44.6006775  43.8829613  25.4904723  38.1794262  43.4191942
  25.7064342  38.4794521  42.5362587  26.3161683  38.2361150  43.9000750
  26.2699652  54.5187950  45.5820227  26.6708851  55.3595829  45.3616285
  25.9171557  54.1969109  44.7524738  17.5970471  39.0225625  43.7838554
  17.7153540  39.9679780  43.6920691  17.6767313  38.8613677  44.7240162
   8.0397815  30.0394535  28.1509089   7.1655357  29.9413586  27.7736759
   7.8823525  30.3476763  29.0433478  46.4881039  72.5476885  60.4173326
  46.7860842  73.4332466  60.6252527  45.5329037  72.6094723  60.4205036
  35.8411431  48.2098579  34.5662236  35.1837111  48.4532404  33.9144731
  35.7759619  48.8891840  35.2374172  25.0779676  53.6765575  55.2083158
  25.9817934  53.5381031  55.4914474  25.0979853  53.5293770  54.2627096
  18.1997657  50.2246380  36.5738344  17.7461076  49.3974257  36.7355299
  18.9365578  50.2171516  37.1848273  23.5503817  57.0448732  58.7098837
  23.5896635  56.6408157  57.8430319  22.6730752  57.4247313  58.7575436
  40.3452349  56.4985180  42.9970312  40.9127522  57.1487713  42.5831079
  40.7172489  55.6557608  42.7370262  37.7755880  56.7540121  39.7041059
  37.7386045  55.8208704  39.9141335  37.1829104  56.8555593  38.9593554
  33.9433837  53.9925957  26.8754029  34.1972661  54.6654749  26.2437272
  34.5543981  53.2729435  26.7173290  40.1763058  67.2887039  34.7024226
  39.5345831  67.9576159  34.4637203  41.0047007  67.7638626  34.7673702
  40.4321671  51.6807795  44.7627306  40.0547075  51.0888863  45.4134369
  40.2682161  51.2502575  43.9236832  40.9298229  65.3514338  44.9305725
  41.7883062  65.1916933  45.3226376  40.8498192  66.3050508  44.9095297
  46.8683863  78.2969332  32.9794979  47.7685976  78.2467651  32.6580477
  46.3673496  77.7493906  32.3750210  41.4542294  54.7572088  34.2679167
  41.0624361  54.4570637  35.0880623  42.3851395  54.5537138  34.3586135
  21.9877529  53.0712748  25.8099127  21.6060257  53.9483070  25.8463573
  22.5531006  53.0880260  25.0376868  49.6331787  78.0341148  47.7694798
  49.1397285  77.2307920  47.6039124  49.9494362  78.3030033  46.9069719
  32.9704380  61.2916517  37.4564433  32.7480674  61.7271376  38.2793260
  32.4265957  60.5040073  37.4477100  41.9239998  54.5051575  41.5209723
  42.8304005  54.7829676  41.6532230  41.6156292  54.2694950  42.3959589
  47.4107885  66.5945578  41.0817719  46.4723206  66.6648054  40.9069157
  47.5522995  65.6647778  41.2598753  33.3525658  62.8054810  41.2294340
  34.1626072  63.1466818  41.6084337  32.8021216  63.5786200  41.1049509
  27.8584480  60.6425428  56.5760422  27.0828843  61.1435032  56.8285751
  27.5097203  59.8316860  56.2057304  31.4954185  58.9373875  67.8094530
  31.2221646  58.0458736  68.0257034  32.4505568  58.9161253  67.8685665
  34.7234273  62.9587889  36.3760138  34.0145826  62.3328018  36.5240431
  34.5693731  63.6513996  37.0184994  45.0673485  71.5852737  44.9705362
  44.6211290  70.8085251  45.3078556  44.3766117  72.0915842  44.5430326
  25.3379011  54.5298052  37.6450706  26.0606647  54.9469376  38.1139469
  25.2859044  53.6501408  38.0188560  29.8161030  69.7533321  32.7778602
  28.8786912  69.9429274  32.8171349  30.2380943  70.5912352  32.9677916
  40.8129311  69.5552254  39.7395635  41.0814905  70.3718996  39.3186688
  40.9029865  68.8921452  39.0551329  34.9268603  56.7235184  34.6434903
  35.3021049  56.1183596  34.0037990  35.2729249  57.5804520  34.3942142
  42.6767731  60.3570843  42.8202438  43.6150980  60.3385067  43.0084753
  42.4925661  59.4999981  42.4359226  34.2550373  80.8938408  67.2672272
  34.6764708  80.6487083  66.4434910  34.6461248  80.3118420  67.9188204
  45.4536819  60.2066183  43.2442713  45.8541250  60.1373625  44.1109228
  45.8969259  60.9493685  42.8342915  27.5865936  68.0208540  62.7782059
  26.6739225  68.0848074  62.4968290  27.8437591  67.1261501  62.5554943
  25.5448985  80.9884644  67.2259903  25.0471449  80.1748276  67.3064423
  26.4419508  80.7439423  67.4534416  39.6377373  66.4933491  26.8214178
  39.5951796  66.9513941  27.6608324  40.3549623  65.8681107  26.9258332
  59.7515440  65.2537537  22.5175691  59.1248894  65.8529472  22.1119738
  59.2377186  64.4726658  22.7227759  85.3088665  67.1353102  49.1609764
  85.0163746  67.9795742  48.8176155  84.6472549  66.5122938  48.8603830
  38.8957262  59.1209745  40.5915642  39.7772026  58.7556887  40.5154324
  38.3141255  58.3841610  40.4042625  46.9443846  65.0809002  37.0438671
  46.5662098  65.0333834  36.1658239  46.2054968  65.3006172  37.6113200
  47.9110575  67.7245235  58.4551287  47.7735186  68.6277199  58.7407064
  47.7148771  67.1961832  59.2288208  34.4622278  67.5187588  52.5008106
  34.8376083  67.8275013  53.3254337  33.5482359  67.8012657  52.5330830
  72.6237059   0.9213702  51.4731979  71.8988037   0.3083555  51.3508701
  73.3240032   0.5779712  50.9183216  54.9081373  68.6107540  62.7768326
  54.9083281  68.0873966  61.9753790  55.0140953  69.5125866  62.4740076
  37.8426242  55.4516697  45.7882214  37.5995660  55.7065916  44.8981810
  38.7187982  55.0766850  45.6991339  19.8594701  48.3039331  34.3866944
  20.1907372  47.7729177  33.6624599  19.6063471  47.6667595  35.0546551
  20.7312226  60.3510857  45.5472469  19.8685372  59.9476814  45.4509878
  21.2108278  59.7561979  46.1237192   3.8170931  79.5994520   1.5007122
   3.0459160  80.1649094   1.4585793   4.1611910  79.5967388   0.6075038
   7.9508907  53.7228489   8.6228645   7.9147255  52.8743649   9.0644526
   8.0014616  54.3611813   9.3343467  14.0956509  65.6189775  47.3927402
  14.9040937  66.0272408  47.7025366  13.5648799  66.3494825  47.0751190
  53.8937664  74.7855234  52.8371763  53.6831188  75.7031870  52.6646852
  53.7415600  74.6772146  53.7759686  30.3389359  59.9171257  50.9689999
  29.7919631  59.3495178  50.4259777  30.7276130  59.3279409  51.6155481
  51.1831522  72.3128128  54.7703743  51.2514877  73.2580614  54.6359491
  50.5772877  72.2186089  55.5054188  54.4688368  78.4209681  25.0614500
  55.2595377  78.5484648  24.5372677  53.9545774  79.2151260  24.9162531
  63.3298016   6.8485451  48.0838966  63.2979441   7.0600557  47.1509027
  63.7729931   6.0009974  48.1223488  21.3149142  28.0893803   4.4632289
  21.3689280  28.7667513   5.1373810  21.3523293  27.2650886   4.9483863
  39.2573118  60.3025246  31.0974216  39.9653077  60.9465933  31.1096478
  38.7451124  60.4946947  31.8828845  46.5966463  63.1549215  30.1302099
  46.9670010  64.0034962  29.8873329  47.3507452  62.6353788  30.4088545
  85.1779652  12.8434360  51.5819120  85.4825115  12.7433980  50.6799841
  84.9993706  13.7795031  51.6719723  42.7256584  66.0626221  54.7612858
  42.6949596  65.1177359  54.9112463  43.3910513  66.1759186  54.0825748
  33.4998846  60.1664400  40.4792452  34.4410110  59.9975872  40.5240011
  33.3951569  61.0402584  40.8556795  33.7345338  55.9718180  37.1593070
  32.9002333  56.4373732  37.2179365  34.1646457  56.3469362  36.3908529
  56.1697626  54.4638348  18.0443192  56.9340420  54.3382215  17.4818826
  56.4292288  55.1587343  18.6493170  32.0885563  76.8915367  36.7820621
  32.9073143  77.3676586  36.9205308  31.4051104  77.5107527  37.0383883
   5.4285967  68.8001871  54.9061775   5.8929586  68.3203459  55.5919981
   4.6249151  68.2995701  54.7657919  28.4697151  63.2592249  39.9843264
  28.4449267  62.3660564  40.3276491  29.2343450  63.6553335  40.4022598
  45.2493191  49.5478296  57.7620316  46.0571241  49.1421413  57.4472237
  44.7277164  48.8169622  58.0936861  46.3976240  73.5124540  50.9174919
  47.0322418  73.1169462  50.3199434  45.5469179  73.2163954  50.5936337
  23.3503675  66.9358492  40.3396273  22.5165868  66.5142441  40.5476952
  23.5022712  66.7246103  39.4184661  43.9216805  55.3810453  54.9690676
  43.0115795  55.3649569  54.6729517  44.2330885  56.2563467  54.7386360
  57.7481556  66.7681837  52.9009199  57.9717398  67.0611954  53.7843132
  58.2638693  67.3316002  52.3239994  36.3927674  58.4810591  69.5420837
  37.1097636  58.5452557  68.9111900  36.8159389  58.2191896  70.3597546
  45.0672483  75.8053350  54.2821503  44.7310543  75.3161049  55.0330591
  45.7421875  75.2380753  53.9094448  48.3037806  12.4823022  58.7379789
  48.9098454  12.8608322  59.3748713  48.0720520  11.6293693  59.1054583
  11.0852098   6.2639987  39.4802833  11.1440182   6.2433982  38.5251141
  11.5708101   7.0491242  39.7332692  31.2362456  60.6430054  34.2515707
  31.5714526  59.7699070  34.4554520  30.3781080  60.6748724  34.6744347
  60.4550982  72.8465748  30.5644250  60.9389019  72.4268961  31.2757850
  59.5440912  72.8404570  30.8581161  75.8699846   3.7418705  48.5838175
  75.4382133   3.0752903  48.0495214  76.2230825   4.3656152  47.9493952
   2.7915099   1.4810359  61.7183590   2.7378103   0.5428296  61.9003439
   2.4926928   1.5669015  60.8130598   0.7926969   3.0200049  38.3205080
   0.8714386   3.7728822  38.9063454   1.6193643   3.0043209  37.8382134
  67.2886181  73.4607220  21.0292983  67.8946877  72.8696775  20.5825567
  66.8987703  72.9260635  21.7209554   4.3189585   4.8535535  50.8345699
   3.7514347   5.3264058  51.4433050   4.6905237   4.1425174  51.3566780
  59.3169594  71.9126749  18.1568360  59.4056606  71.3177109  17.4122691
  59.9704456  71.6077280  18.7862730  54.9786329  68.6476564  22.3947644
  54.1149044  68.9353848  22.0991039  54.8579359  67.7268457  22.6266646
  11.6803181  25.2536917   7.3661470  11.5617275  26.1813927   7.5699562
  11.9549394  25.2431059   6.4492482  71.1873913  13.9314246  43.2338095
  70.8320427  13.1200111  42.8710890  70.5893421  14.1574299  43.9461899
  77.5994015  16.1995399  57.4489307  77.2420740  15.6849647  56.7252159
  77.0743084  15.9433460  58.2071352  56.1747360  73.3286285  59.2868757
  56.5548420  72.5591660  58.8629913  56.9296074  73.8270235  59.5999193
  79.0164995   3.5973787  20.7240891  78.7470198   2.9006585  20.1255965
  78.4882259   4.3526506  20.4657865   4.7187015   2.4165189  58.4448719
   5.6689590   2.4632236  58.3397007   4.3824354   2.3390245  57.5520372
  77.7585411  14.2255592  61.1222601  78.5001755  14.8263097  61.0494041
  78.1361246  13.4208751  61.4774323  31.2376308  52.5649071   1.8931866
  30.4410219  52.2511292   2.3211932  31.1843443  53.5184622   1.9574292
  34.1926384  64.7481108  43.2420540  35.1199102  64.8031473  43.4730673
  33.8515997  65.6267357  43.4092140  46.8291998  73.6851454  45.4530191
  45.9841108  73.3197451  45.7148123  47.4756575  73.1286144  45.8873034
  34.2228222  75.7726765  49.5963860  34.1066456  74.9220371  49.1731262
  33.8190389  75.6686211  50.4579926  46.8254948   9.0820003  25.5870795
  47.0878792   9.7718573  24.9775839  46.6297483   9.5442092  26.4021111
  80.5150986  62.5956392  43.3466530  80.1471615  62.3144436  42.5089264
  80.6304932  63.5411596  43.2522631  59.2749310  64.3019676  29.3326020
  60.1099300  64.0598726  28.9321041  59.0874577  65.1745701  28.9867020
  84.4400311  11.0498750  61.1626387  84.0198612  10.2640605  61.5121794
  85.3486347  10.7889414  61.0123444  52.3372316  78.2514524  36.5062666
  52.4667645  79.1992331  36.4721370  53.0776310  77.9268265  37.0187712
  76.6567945   3.4508249  53.0730486  75.9872723   3.2985407  52.4061298
  76.5242004   2.7489042  53.7101936   2.8314325  12.1937585  18.5625350
   3.7883925  12.2005939  18.5422361   2.5938618  13.0398834  18.9418304
  32.0844221  78.6458969  57.5723934  31.7190218  79.2473316  56.9235611
  31.5752244  78.8113356  58.3658552  67.4520588  69.4699860  29.6488142
  67.3583031  70.0642920  30.3932905  66.8489933  69.8143148  28.9900422
  17.5151038   3.4998655  60.2146673  17.6179624   4.3805775  59.8541117
  16.6147566   3.2565260  59.9992800  64.7894192  63.5018730  23.9924955
  64.4389534  63.0269527  24.7460556  64.5512629  64.4149780  24.1529655
  54.0346098  53.4054184  59.5223284  54.3812704  54.2071390  59.1307831
  54.3421125  53.4290409  60.4284811  62.1579885  71.4324427  32.3098922
  62.0224094  70.5066729  32.1079040  62.9329252  71.4440298  32.8716493
  60.9899569  10.5839956  35.8377385  61.1347675   9.7978050  35.3112745
  60.4597950  11.1521864  35.2788854  18.6862123  22.4638510  20.2554369
  18.2775903  22.1227860  21.0510087  18.2529330  23.3039927  20.1048946
  60.8009052  78.2527637  53.8022852  61.3569450  79.0318823  53.8071823
  59.9448729  78.5712385  53.5159111  50.0404119  56.3818407  29.8616576
  49.9627447  55.5465841  29.4006252  50.1925039  57.0245838  29.1688514
  40.7190561  80.2713299  61.4859056  40.4889488  80.6670666  62.3265457
  41.2111378  79.4839525  61.7185497  36.1203551  73.8879395  42.3385811
  36.0976171  73.3557987  41.5432549  35.8282995  73.2956409  43.0314827
  40.8112907  78.9681625  43.3794260  41.6548920  79.0887785  42.9435062
  40.6197691  78.0359554  43.2767725  84.1013336   2.5260442  59.8464918
  84.7538471   2.8574288  59.2295265  84.5925903   1.9414175  60.4236412
  34.3215036  70.4702425  35.9806442  34.1660786  69.8331642  36.6779304
  34.5928764  69.9421406  35.2298450  58.5152102  77.1687746  47.3165703
  59.4561195  77.3268986  47.2396708  58.1447124  78.0258894  47.5270939
  44.8931980  79.0828705  22.9268098  44.7380733  79.2430115  23.8576818
  45.2592230  79.9047756  22.6001215  53.1042242  79.8518181  47.1961975
  53.0233717  80.6164169  46.6260386  52.3255634  79.8840714  47.7519703
  59.5723724   0.2451372  35.5269957  60.1013660   0.9004485  35.0720596
  58.6882877   0.6120272  35.5314231  83.3709335  25.8297014  57.3408556
  83.9174271  25.3538346  57.9662561  82.5759983  25.3016186  57.2670937
  48.9907360  66.6655636  33.0377984  49.4869280  66.1534691  32.3992181
  49.6583652  67.0630980  33.5967851  13.9360487  33.1107092  55.1931047
  13.0865467  32.7234840  55.4043770  14.2899466  32.5498056  54.5029068
  54.4386673  55.7628584  58.2541752  55.3493690  56.0417080  58.3495569
  54.1972733  56.0321999  57.3679399  73.3440924  21.3243175  21.2444949
  73.6102390  20.6172967  20.6566834  73.8668776  21.1883903  22.0347166
  49.4873571  66.8783760  26.7323589  49.6231031  67.4272871  27.5046945
  49.8513269  67.3886299  26.0088992  58.3649206  79.1901112  21.1995268
  58.9939785  79.8199606  20.8476591  58.8184547  78.3483458  21.1551166
  11.4176726  18.0964959  29.3957472  10.4833555  18.2592475  29.2661572
  11.8359292  18.4720409  28.6209846  29.3315840  79.5337105  40.1752377
  29.4073081  79.4692802  41.1272573  30.0758004  79.0328312  39.8413301
  71.8268919  10.0050676  32.5763202  71.0206223   9.8618186  32.0806980
  71.6722631  10.8193898  33.0550718   0.3646103   2.1241917  43.4781551
   0.4320661   2.3181300  44.4130707   1.2611315   1.9226986  43.2100439
  65.1947069  68.9447451  37.4750376  64.3617439  68.7522697  37.9055738
  65.7236242  69.3644905  38.1534886  62.1520996  65.3734303  50.7038403
  62.4177599  65.9722614  50.0059462  61.6484594  65.9185362  51.3083553
  52.8549480  75.6461859  10.7794595  52.5028801  76.2809944  11.4034021
  52.5160980  75.9312153   9.9308306  53.3036232  76.1035204  56.8838167
  54.0777826  76.6495275  57.0208597  53.6104155  75.2099895  57.0378256
  37.1242428  60.7551193  48.6907291  37.9288721  60.9950495  49.1503334
  36.4392900  61.2625313  49.1261673  63.0777597  75.7547712  57.4300098
  63.6078978  75.1749229  57.9767847  62.4343061  75.1761103  57.0209217
  70.6984854  73.9447641  59.6129656  71.3966084  74.2689610  59.0439653
  70.5231619  73.0587626  59.2959547  72.7606297  72.4884224  54.3853998
  72.0468426  72.9684067  53.9654589  73.5336351  72.7037525  53.8635540
  22.4180269  34.4894409   9.9852467  23.1302190  33.9285088  10.2924407
  22.0663881  34.0330672   9.2208481  79.5802593  16.4522469  18.4837580
  79.7421694  15.7708585  19.1362357  79.1669512  17.1616757  18.9758122
  49.6645784  67.3658371  53.2912636  48.7838411  67.1946001  52.9577780
  50.1052952  67.8273439  52.5778151  47.2783279  79.7793436  56.1903048
  46.8998003  79.4006062  56.9837189  47.8571653  79.0964127  55.8515072
  55.3746700  79.6088171  10.1057851  55.0995493  80.0924397   9.3269116
  55.0023270  78.7347794   9.9889427  43.6522770  51.7923164  66.5046310
  42.7397299  51.5561485  66.3381720  43.7630987  51.6702700  67.4475288
  57.8270340  73.0407810  62.6430368  58.7471676  72.9752445  62.8985548
  57.8269863  73.6455297  61.9010735  57.3294735  61.0710812  62.0492554
  57.7944756  60.5957413  62.7377748  56.8143320  61.7279339  62.5176620
  32.1254659  61.4423990  43.2937098  32.4278474  61.9899940  44.0182304
  32.5994062  61.7721510  42.5302458  14.1917515  68.7186384  46.0981321
  14.7040045  68.7780523  46.9045401  14.8390710  68.5410881  45.4157209
   1.7934297   8.7336963  58.6798525   1.8251193   8.1776851  57.9013395
   2.2664469   9.5266044  58.4272957  14.9553847  67.7856398  49.0170145
  14.1158259  68.2421303  48.9623642  15.5663610  68.4461832  49.3435431
  44.3507576  65.9055662  48.8790321  44.7837496  65.0664473  49.0359449
  44.9194717  66.3553953  48.2541656  12.2443151  65.3110933  33.7290263
  12.1070457  64.4647694  33.3034372  13.0758440  65.6255484  33.3741903
  42.9592323  77.0312023  30.2818847  42.5640678  77.5585699  29.5876527
  42.8292990  76.1261654  29.9985766  61.7838621  76.9716406  45.1063251
  60.9896803  77.0186234  45.6385851  62.1393585  77.8601217  45.1276112
  21.0136795  20.5429053  33.0484962  20.3268909  19.8769212  33.0803800
  21.6999149  20.2070832  33.6251545  51.8198824  78.4579659  40.6086397
  51.2110424  78.7342405  39.9236465  51.7106819  77.5082636  40.6573486
   0.5261787  73.9872313  39.6176147   0.8776760  73.8979053  38.7317801
  -0.4009880  73.7657213  39.5308614  76.0599756   2.2908641  45.3349209
  76.5539837   1.5240885  45.0446749  75.3239202   1.9288824  45.8282995
  71.9170189  21.1606765  35.7456970  72.5505209  21.2562943  35.0345278
  71.3265038  21.9068980  35.6423712  58.3098078  75.0454569  44.8613977
  57.5641346  75.6309891  44.9931192  58.6335325  74.8675251  45.7444477
  73.1281614  70.3678513  47.3297930  72.6188183  70.3480625  46.5195990
  73.2297039  71.2991714  47.5261736  34.8153186  75.0490379  37.5985646
  34.7796273  75.3292322  36.6839886  35.3506899  74.2556667  37.5852847
  12.0028520   7.7854633  49.5840216  11.3807046   7.3328227  49.0145636
  12.1329308   7.1873409  50.3199291  44.5933151  61.7773056  46.3260460
  44.0382147  61.0086107  46.1948586  45.4464531  61.5189981  45.9772348
  57.7518511  80.0991821  64.3973351  57.3261070  80.5730057  65.1118088
  57.4666214  79.1921949  64.5079803   9.2315316  17.2811317   1.7536676
   9.8776072  17.7601790   2.2726391   9.6806878  16.4761508   1.4958003
  30.1796770  64.0606117  53.1789303  30.5244017  64.6440935  53.8549042
  29.8894024  64.6478081  52.4809551  57.1925163  71.7442513  42.5555658
  57.4625778  71.8047953  43.4718800  57.6538563  70.9755373  42.2201872
  56.8260670  73.6122084  14.7455359  56.1994696  74.2819977  14.4716942
  57.3260450  74.0254498  15.4494452  83.9462662   7.5341326  68.0933952
  84.1120529   6.6345417  68.3753204  84.3040752   7.5770175  67.2066212
  36.2132859  61.9879103  42.7640486  35.6875300  61.8351507  43.5492039
  37.0022869  62.4243784  43.0853033  33.4580135  77.2782898  31.4024043
  33.0143118  76.6188288  31.9357610  33.9911413  77.7715063  32.0258999
  32.2772431  62.7920580  32.9055977  32.0457649  61.9449759  33.2865214
  32.2245049  63.4063673  33.6377692  77.3692226  16.0634565  33.4748173
  78.0639172  16.1617792  32.8236914  76.5715647  16.3262618  33.0155730
  55.9999466  71.3903284  33.8233805  55.2552271  71.3573599  34.4238257
  56.7684603  71.3713932  34.3936968  67.5600529  67.3762226  58.4626102
  68.4709167  67.2699785  58.1882477  67.0710278  66.7654800  57.9111814
  49.6659851  64.5358849  40.0743723  48.8443851  64.3335438  40.5218792
  49.4097757  65.1061344  39.3495226  83.4849739  60.4443502  64.3000174
  83.1189060  60.7439756  63.4678793  84.3945503  60.2261448  64.0968275
  35.9946609  76.3131714  58.0874777  36.9394469  76.3970089  58.2162571
  35.6349659  77.1404743  58.4075069   3.2868388   6.3054663  41.4102316
   3.0430239   5.9516066  42.2655487   3.7404943   7.1242571  41.6102552
  69.8416615  78.8214731  20.4875040  69.3433571  78.0060148  20.5418992
  69.1756201  79.5088482  20.4760075  32.2114325  75.9584904  55.1025772
  32.2403693  76.9060993  54.9705601  32.8249049  75.7977009  55.8195353
  40.1830959  64.0730286  29.5542622  40.8808994  64.6870232  29.7829819
  40.5170965  63.2184505  29.8269820  37.7458692  78.7712908  39.3054771
  37.5289416  77.8716612  39.0608382  37.2360682  78.9331961  40.0992775
  71.5048790  13.1306970  30.3810740  71.6247416  13.1544697  29.4317055
  72.3399210  12.8080034  30.7199097  72.6216698  73.1896496  42.6772928
  72.8412867  73.6381197  41.8606710  73.2470608  73.5335970  43.3151150
  57.0470762  74.8124170  47.5216532  56.1279631  75.0224352  47.6870298
  57.4811077  75.6637669  47.4663830  52.6834631   2.9567489  41.5752792
  52.5508881   3.1576967  42.5017118  53.6226797   2.7887225  41.4986658
  52.7355623  72.1182060  63.4348440  52.1048880  72.8346825  63.3631420
  53.5867119  72.5335503  63.2960367  58.1694078  70.8446741  58.0662918
  58.9887094  70.9069538  58.5573101  58.3164454  71.3795376  57.2862053
  16.8202114  10.0174725  18.1098688  16.2232077  10.1788163  18.8404751
  17.2392428  10.8634138  17.9516649  73.8014412  16.9376493  37.4950409
  73.7844181  15.9807050  37.5091934  73.9783764  17.1605623  36.5811300
  43.3097649  78.6768484  59.4060802  42.9789782  79.5729637  59.3445587
  42.8952360  78.3219814  60.1925087  60.3468323  80.6964874  56.3488150
  59.5077801  80.3693485  56.0244703  60.8131409  80.9807205  55.5626822
  12.5001299  15.9316325  42.9520082  12.7423537  15.0273132  42.7525949
  13.3271360  16.4127970  42.9242039  68.5551214  67.5893736  53.8327360
  69.0916157  68.1683731  54.3741846  68.3328915  68.1168127  53.0654955
   5.9121811   1.7132330  50.0545835   6.1232412   2.1565154  50.8762789
   4.9603212   1.7835553  49.9821329  54.5692015  68.3658600  18.1281197
  54.1434431  67.9095507  17.4023461  53.8799953  68.9135504  18.5039663
  58.5997105   1.6042058  13.6245143  58.0410719   2.2801509  14.0082479
  57.9880619   0.9405022  13.3057415   6.6421294  14.3461215  64.2900133
   6.8908602  15.2076507  64.6248770   5.7238519  14.4431376  64.0378523
  40.9672356  80.5006313  45.9676647  40.8592510  79.8094702  45.3143167
  41.6336632  81.0789490  45.5966425  64.5556068  65.8225679  63.5750532
  64.8202038  65.3347397  64.3549538  63.7954092  65.3463173  63.2411098
  46.0110331  60.1888084  24.9841762  46.4818525  61.0092354  25.1306558
  45.8968306  60.1443958  24.0348530  66.7222881  62.3349237  66.8431902
  66.5265703  62.5393391  67.7575970  66.1596107  61.5879726  66.6390133
  67.2717333  75.8495855  42.2654009  67.6891422  75.9091997  41.4060688
  67.4074268  74.9412441  42.5350904  48.4196520  79.5636559  49.9001169
  48.5214329  78.7516642  50.3966522  48.4364176  79.2877102  48.9837074
  49.7348070  60.8225679  26.4197969  50.5392027  61.3407326  26.3936329
  49.0446520  61.4606476  26.6008139  47.2994661  72.3340368  48.5510159
  46.3858604  72.0610619  48.4671021  47.7839565  71.5167046  48.6670685
  75.5814266   5.6930816  61.2786150  76.4888287   5.3902167  61.3121223
  75.4726648   6.0256225  60.3876495  36.8416643  69.2368555  48.8027143
  37.0678735  68.3085823  48.8607693  36.0331225  69.3184328  49.3085146
  82.5743198  47.3007154  68.4669828  82.2795105  46.4383078  68.7594986
  81.9782162  47.9154348  68.8947725  37.7259541  56.7712641  43.2016420
  38.6022639  56.6353130  42.8413153  37.7029085  57.7002048  43.4313631
  29.9816465  31.0493922   1.5159342  30.0374889  30.7528067   2.4243122
  30.4798317  31.8665719   1.4997327  28.6753511  60.2608490  36.1797881
  28.6746454  61.1959791  35.9754443  27.8001404  60.0911760  36.5282822
  54.7052336  13.8446057   1.0155164  55.6600523  13.8956082   0.9713181
  54.5310974  13.2187307   1.7185028  43.6034203  73.3143425  43.4403038
  44.0259171  73.9448690  44.0235424  43.1373930  73.8538456  42.8015661
  60.7435560   6.0371882  59.6489763  61.5815258   5.7378411  59.2962265
  60.8213377   6.9908857  59.6743536  31.7055297  59.1312408  31.8384171
  31.3566303  59.3171835  32.7101541  32.5873828  59.5033360  31.8490052
  77.6314259   6.6574681  56.8051958  77.9566431   6.8112254  57.6922274
  76.7458248   7.0206934  56.8084669  37.6434350  66.9293547  45.8103323
  37.0481944  67.0241499  46.5539265  38.4091496  67.4521065  46.0483265
  13.4865296  17.6518917  39.8893380  12.5540555  17.7271688  39.6867108
  13.6456645  18.3339214  40.5418301  34.4859052  76.0164309  24.1678953
  34.4102716  75.0813437  24.3579674  34.1999602  76.4483500  24.9728251
  32.3151255  73.6119604  49.0105343  33.0172658  72.9614353  49.0173292
  31.6543531  73.2574034  49.6054316  44.2925501  76.1699247  61.6544676
  44.5877171  76.1269283  60.7449293  44.1726542  75.2555227  61.9108438
  71.4221907  22.5231099  48.3512068  71.3273382  23.2284427  47.7111006
  71.4544964  22.9700398  49.1970491  80.8234882   9.0974849  32.0388246
  81.2212181   8.3165973  32.4238658  80.6262875   8.8457721  31.1366129
  55.5934095  64.3374395  61.2239695  54.7089529  64.5448256  61.5255642
  55.6445456  64.7223759  60.3490782  81.3672638  23.0245090  57.5088739
  81.2826443  23.3892560  58.3898020  80.6042576  23.3583903  57.0370865
   1.4505754   5.4677242  48.5625648   1.4936620   5.5881757  47.6139498
   1.8255822   6.2711400  48.9232922  52.3791695  75.2808857  40.2796936
  51.4855623  75.4817963  40.0016117  52.2733879  74.6313620  40.9747934
  20.7163072  11.4700055  49.5874596  20.7224917  10.6053805  49.1768312
  21.4368272  11.4413548  50.2169561  18.6074579  30.1312995  31.0156465
  17.9554868  29.7211933  31.5839601  18.0969083  30.6903505  30.4299569
  85.4625130   1.9731607  46.4874697  85.0506783   1.2653685  45.9918308
  84.9383450   2.0433670  47.2853088  47.5471926  67.4813414  64.2630005
  47.3177385  68.4035015  64.3779182  46.7263985  67.0105076  64.4073868
   7.9478216  33.3648157  52.0391989   8.0875105  34.0715146  51.4088869
   7.7341485  32.6026273  51.5010118  41.5759706  74.5647669  17.3631287
  42.1064901  74.6673965  18.1532216  40.7654905  75.0361252  17.5559390
  17.7015793  46.3234711   4.0642387  18.1822240  45.6934977   3.5272601
  18.3727896  46.7363501   4.6075997   0.1482885   8.0443615  14.1016412
  -0.1568411   8.9273715  13.8932621   0.4753723   8.1094843  14.9988627
  72.6046610   6.4688289  12.9001248  72.6948404   5.7414174  13.5157311
  73.2922792   6.3199699  12.2510874   6.5664834   6.3316554  47.2527027
   6.9294447   7.1169144  47.6624060   7.2403234   6.0513949  46.6333246
  27.2920966  54.4274235  18.9848387  26.3672924  54.2067099  19.0955424
  27.3591852  54.7309637  18.0795252  70.7335377  72.7725554  62.2460413
  69.8431540  72.7851820  62.5971556  70.6780910  73.2768393  61.4343452
  13.1776798  36.7457199  33.0487871  13.5618377  35.9643745  33.4464693
  13.9191735  37.2001982  32.6489520  79.2482281   3.1510222  52.6237869
  78.4430027   3.4233627  53.0638790  78.9644670   2.8821403  51.7500544
  84.1656113  22.6295257  29.1592693  83.6867046  22.0547462  28.5621905
  84.5349789  22.0387936  29.8156500  20.2435064  57.9730511  10.5104208
  20.7211852  57.6828241   9.7333598  20.1652098  57.1869516  11.0509300
   7.6159495   4.4419551  59.8771381   6.8656230   4.9287716  60.2180958
   7.6772398   4.7080326  58.9597082   2.1367337  11.9529271  51.8030357
   2.2374646  11.4243197  51.0114193   1.2400354  12.2846603  51.7570305
  17.2423339   6.1832356  31.6628289  16.9647074   5.2793956  31.8119216
  18.0797160   6.1043006  31.2058902  58.5433197  78.7144852  33.8547015
  58.3877420  77.7738190  33.7699819  58.8101482  78.8319635  34.7664189
  83.9556503  70.7962561  40.9288836  84.1895103  71.1025810  40.0526953
  83.0180264  70.9742308  41.0025072  13.1168246   3.4629723  27.6885390
  13.6913776   3.8088357  27.0055318  12.3866987   3.0694526  27.2107410
  85.2019310  15.3091192  48.7167692  86.1547565  15.3358543  48.6293602
  85.0467300  15.3503728  49.6604061  66.9918919  65.1802683  46.8184519
  67.6320457  65.8404303  47.0841885  67.3444366  64.8183870  46.0054445
  71.4343786  77.4098539  37.2699571  70.9568405  77.6775026  38.0551672
  70.7745123  77.4102068  36.5765548  19.8331511  56.1195612   2.1226637
  19.1658342  55.4664707   1.9119719  20.1067567  56.4651489   1.2729910
  68.9690256   2.6076496  31.8788910  69.0979147   3.5473970  31.7504573
  68.2007122   2.3965700  31.3484502  70.7445002   6.6158378  62.0381021
  70.9680605   6.0622764  62.7863121  71.0523462   6.1247146  61.2763500
  40.6206322  77.7429152   9.2764622  40.9558105  76.9699860   8.8220763
  41.4036417  78.2403469   9.5124495  82.9043198  15.5175543  55.2785301
  83.1711578  14.7735465  54.7386408  83.3780003  15.3982425  56.1017084
  70.0224924  16.6311240  61.9938421  70.4491663  16.5456867  62.8464174
  69.4680691  17.4066246  62.0801163   9.6588606  18.4064090  64.1923285
   9.7653866  19.1366756  63.5827398   9.5317715  18.8226581  65.0448656
   2.4551918   5.8824301  59.5119619   2.0487705   5.4104549  60.2388000
   2.1960908   6.7944074  59.6438599  40.5566311  58.4129190  45.5791855
  39.6767879  58.5476828  45.2271271  40.7842064  57.5200605  45.3198719
  46.3983631  56.6192627  53.2012463  47.1490192  56.6379213  53.7948799
  45.6978369  57.0543909  53.6872053  70.8198500  14.7444093  51.4034605
  71.0658264  15.6669271  51.4719248  71.3908672  14.2972779  52.0281601
  73.1420231  75.3734016  37.8829598  72.5101900  76.0860538  37.7873397
  73.5975218  75.3426647  37.0416474  73.7777185   8.4947801  67.6273346
  73.6489868   8.0136091  68.4447289  74.0078020   9.3814439  67.9050398
   6.4710903  16.1786568  29.5162153   5.8649665  16.9140899  29.4268608
   6.0876119  15.4855740  28.9788008  11.4539731  20.5111432  47.3296165
  11.6942573  20.0116849  46.5492105  11.8962193  20.0596523  48.0485106
  77.5986099   0.2355542  41.3867521  77.1760321   1.0943363  41.3743210
  78.5187960   0.4186388  41.1970901   5.6156260   2.7938032  34.8539400
   6.0834712   2.0456478  34.4829726   5.9825623   2.8941670  35.7323003
  57.6691294   4.5289069  44.1940355  56.8346882   4.7830176  43.7998676
  57.6511335   4.9214718  45.0668478   9.5917362  71.9342279  33.5714102
  10.4704618  71.9877577  33.9471841   9.6162492  72.5262547  32.8196549
  70.0502157  17.6288319  50.6806040  69.3548393  17.2682321  50.1304674
  70.6769848  18.0017436  50.0606585  10.5596220   2.9680070  30.6085920
  11.0890591   2.8247729  29.8241115  10.4640436   2.0976105  30.9952521
  16.9323254  33.0690694   8.8733333  16.8917179  32.6843405   7.9977953
  17.8652990  33.0801582   9.0870392  74.8136663  22.3260832  57.6840019
  75.5215454  21.7374539  57.4219704  74.0302896  21.7760634  57.6782227
  73.3557796   4.1438863  33.5718226  72.9030132   4.4552791  32.7880692
  73.8021135   4.9183521  33.9142013  71.2028313  53.5215664  45.7698059
  71.2105322  52.6781607  46.2223959  72.1052933  53.8346338  45.8313036
  14.7212005  29.5634079  54.1502476  14.5008576  29.5969677  55.0811338
  14.4994831  28.6712193  53.8836479   0.4477207   6.2031037  19.4203436
   0.3650112   5.5209434  20.0867128   1.0169236   6.8606901  19.8201180
  82.6717854   9.5927668  55.2476215  82.6527405  10.2618802  55.9318399
  81.8068695   9.1846579  55.2875853  69.1552401  77.5173235  35.4469681
  68.8253021  77.0190525  34.6992421  69.4802523  78.3332825  35.0664258
  71.3779116  73.8854790  48.0895329  72.2603559  73.5850668  47.8721142
  70.9044361  73.0875444  48.3248091  80.9327030  20.5832052  51.9477320
  81.7766285  20.3997874  52.3605013  80.3867817  20.9200835  52.6581621
  66.1189127  78.9098549  36.7782092  65.9019756  78.0313015  37.0901704
  66.0759926  78.8426971  35.8243346  40.2502298  11.2033951   0.4332613
  40.7845545  11.1527491   1.2258299  39.4914675  11.7278779   0.6890469
   8.7934715   6.9082665  41.3673830   9.7309065   6.7483485  41.2584162
   8.7204605   7.3307288  42.2232056   1.1325688   9.4929677  61.2019110
   1.0576208   9.1417933  60.3146172   2.0074135   9.8801398  61.2331629
  81.8610859   3.6175478  53.7008715  82.1026421   4.5430976  53.6656380
  80.9468937   3.5976616  53.4178782  84.3725967  21.7624545  67.2717571
  84.5773983  21.3572621  68.1144333  83.4225750  21.8785453  67.2864056
   1.4449410  25.5971408  29.8618293   2.0789379  26.0291815  30.4342103
   0.6828111  26.1762333  29.8683572  79.2836380   0.4441223  60.8297205
  79.6820927  -0.1427882  60.1870680  79.0769958   1.2367475  60.3344631
  83.5742664   9.3510067  38.7153673  82.7169132   9.4126272  38.2942128
  83.9697742  10.2121961  38.5805941  63.5091925  73.9988852  60.1840544
  63.6719656  73.4640217  59.4071007  64.1052961  74.7421741  60.0923252
   4.1580799  53.7017059   0.7996617   3.9268237  54.4571400   0.2592268
   5.0274312  53.9093924   1.1421890  13.5855126   0.1528938  44.5861101
  13.4858882   0.5641533  43.7275219  14.3184292   0.6171715  44.9904776
  10.1580143  15.2473271  61.1328888   9.3976754  14.7859430  61.4867830
  10.3806865  15.8922338  61.8042660  81.1560917  33.7628913  57.1986866
  81.6372871  33.3379149  56.4886999  80.2581596  33.4454226  57.1030474
  80.0619602  15.1859522  21.1975217  79.2721367  15.3190684  21.7216229
  79.9508619  14.3162024  20.8135629  84.2298889   1.5809481  51.0418320
  85.0265884   1.3502350  51.5195990  83.8563538   2.3100436  51.5369368
  40.1907492  73.8728046  48.3821392  40.1578951  74.5008755  47.6605606
  39.8411989  74.3523598  49.1331863  64.1084909  12.0701194  34.0110874
  64.9260759  12.4236035  34.3615627  63.8895845  11.3461637  34.5977736
  38.4407067  75.3544188  41.3261366  38.1314230  74.5940256  41.8184614
  37.8224754  75.4372931  40.6000805  35.7697558  45.9195995   0.6893448
  34.8269939  46.0204077   0.8207606  35.8495593  45.5220318  -0.1777229
  85.2109432  69.6286440  36.1403751  85.3239441  69.3163538  37.0381165
  84.5386887  69.0563536  35.7705355  47.5096989  77.2559500  41.1387539
  47.1692371  76.6622353  41.8079472  46.9894552  77.0616722  40.3591156
  24.8238945  50.9079027   2.2793698  24.4330025  51.5514421   2.8703782
  24.3200731  50.9893179   1.4695756   9.7045624  16.5550196  56.6664267
  10.1392531  17.2947431  56.2420607   9.2813975  16.9353509  57.4361753
  68.3825636   8.9705372  42.0630693  68.9393282   9.2147225  42.8024054
  67.5326061   9.3624401  42.2636080  83.4709263  68.3431149  62.2608042
  84.3188667  68.4587145  61.8320131  82.9103088  69.0116358  61.8670654
  13.4297252   4.7509301  56.6234779  13.9193213   3.9381695  56.4971924
  12.5210464   4.4692102  56.7291594  27.7333760  73.3389759  22.3451877
  27.1881080  73.5147810  21.5783691  27.4503589  73.9840221  22.9932976
   6.6585332   1.8310598  67.8884649   7.4771684   2.1200919  67.4853182
   6.3085586   1.1803260  67.2799444  69.3106985  12.7344966  67.3984718
  69.6889067  13.5451853  67.7390242  68.5151339  13.0133152  66.9450665
  61.3824892  75.3640509  39.8428655  61.9173765  74.6238470  40.1296139
  61.2093449  75.8589077  40.6437206  20.3123498   7.1649522  37.1329856
  19.7344410   6.4213318  36.9618702  21.1258650   6.9455409  36.6788006
   2.3838346  23.2602596  53.1568956   3.2398975  23.6097646  52.9094410
   2.1743256  23.7006259  53.9805555  58.7110472  17.6729560  47.9609108
  58.9311647  17.9376650  47.0677662  59.5288372  17.7717841  48.4484339
   3.6987555   0.9214836  18.1617141   3.8398284   0.1018833  17.6878095
   3.8435486   1.6046499  17.5070763  40.1565313  63.2559490  39.3642211
  39.8557281  63.8808632  40.0239420  39.9319053  62.3987865  39.7262239
  13.7259793   4.1562730  50.4061556  14.1959298   4.5941946  49.6965075
  12.8656828   3.9572436  50.0366831  14.7587192   2.8802675  45.2200842
  14.0105867   3.2069671  45.7198811  14.9732685   3.5921270  44.6172094
  59.6569061  66.5699339  32.7127910  60.4941988  66.7398214  33.1444216
  59.5507908  65.6198740  32.7614331  75.6284142   9.6368200  65.7130671
  74.9889946   9.3931931  66.3824081  75.1952314   9.4356948  64.8835278
  48.0834389  60.4399967  69.1619015  48.5185909  60.0959969  69.9419880
  48.6290979  61.1775160  68.8888502   3.1980351   2.9030207  36.7787623
   4.0627071   2.6554865  36.4511967   3.0315635   3.7618369  36.3902354
  78.4722233   4.1418511  66.1996174  77.9345274   4.3338099  65.4313231
  79.1016769   3.4885657  65.8942699  65.7260466   2.9566425  38.2625437
  66.6231585   3.0682403  37.9479480  65.6402206   2.0151785  38.4125829
  61.1557865  73.6248112  51.6808033  61.3306379  74.4601488  52.1142435
  60.4286337  73.8108015  51.0867596  45.9324169  11.2474394  42.7249575
  46.5581560  10.5815530  43.0100489  46.1111736  11.3600051  41.7913628
   0.1954991  19.6247649  26.4163828   1.0071086  20.1157045  26.2879348
   0.2384169  18.9182413  25.7720137   0.1292747  13.8544583  40.1103544
   0.1583100  12.9189193  40.3107452   0.7277244  13.9596665  39.3707466
  44.3166685  76.4139509  33.7325215  44.6359110  75.7602549  33.1104326
  45.0729847  76.6066837  34.2866588  30.2223420  24.2685103  22.3310232
  30.7836747  24.4426918  23.0865359  30.7416582  23.6868763  21.7758226
  64.4448471  76.7833376  35.7477951  63.6340046  76.6169786  36.2285089
  64.1590452  77.1884632  34.9290013  66.1974478  74.9173355  36.8844748
  65.5683231  75.5281734  36.5006590  65.7170153  74.0925980  36.9567251
   1.6903560   5.1742548  62.3223877   1.1279917   4.6258622  62.8694201
   2.5294250   5.1910645  62.7827263  13.7778485  10.0491118  45.3729868
  14.7135901  10.1882458  45.5188036  13.5032380   9.4880819  46.0982895
  70.5149698  71.4767122  33.0601954  71.0871458  70.7153606  32.9643655
  69.6289015  71.1190510  33.0036736  83.4392085  -0.3009542  22.4240303
  82.8686633  -0.2328428  23.1895828  83.4776844   0.5891386  22.0740438
  15.7366908   3.4594926  38.3228350  15.8353639   3.3541808  39.2690945
  15.2664626   2.6744011  38.0422139  66.2664461  76.8093300  24.2344689
  65.5979919  76.6529322  23.5674334  66.8811226  76.0826826  24.1325593
  68.5073757  58.6128664  55.7827997  68.9655924  59.4132090  55.5264378
  69.1623974  57.9212523  55.6886864  66.3932943  81.0311413  20.4120874
  67.2906017  81.0407829  20.0789595  66.0667372  80.1578426  20.1954055
  85.4073620   4.4493818  42.0698929  85.6787109   3.7488529  42.6630688
  86.2268162   4.8581955  41.7913342  69.5065928  68.5691500  48.6594677
  70.1765203  67.9762936  48.9999771  68.9267111  68.7283278  49.4042015
   4.7722414   0.4953216  41.0885286   5.5424249   0.3123160  40.5504227
   4.0573898   0.5903712  40.4590988   1.3498782   4.5076612  55.9566593
   2.2651309   4.7822538  56.0127211   0.9984207   4.9961808  55.2123070
  21.6926479  49.6066809  17.4175930  22.5552416  49.2134905  17.5501275
  21.0759091  48.8962936  17.5942719  79.7069836  19.6292949  31.7750525
  80.5420589  20.0800133  31.6495991  79.0465403  20.2728057  31.5182662
  47.5377798  79.1359568  28.7864518  47.9243231  78.4044409  28.3050990
  46.8106461  78.7458992  29.2715955  67.4926996  69.5759344  56.6952658
  66.8311405  70.2441549  56.5162230  67.0612621  68.9660597  57.2937202
  66.1407900  73.8005733  40.2309275  66.1045790  73.2744122  41.0297251
  66.4794254  73.2020950  39.5650578  80.3806973   5.4092890  67.4884939
  80.9945583   4.6777833  67.4228573  79.6607399   5.1709342  66.9044733
   1.6195762  23.4099293  40.3076410   2.3379245  22.8363299  40.5744553
   1.8132049  23.6280298  39.3959522  72.1323824   3.3341685  48.5663652
  71.8174267   4.0995973  48.0855799  71.8109608   3.4629202  49.4587469
  17.2093201  42.0064783   1.6626234  16.4655316  41.7911530   1.0999101
  17.6862836  42.6823187   1.1809853  82.7213573  22.5133324  13.5827899
  82.4945354  22.2806716  12.6824260  83.6089230  22.1750665  13.7012374
  10.9901285  22.1915078  39.2615032  11.7540240  22.5618267  38.8192821
  10.8507454  22.7623010  40.0171471  62.0891905  60.4445982  58.0240726
  62.2324228  60.8827257  57.1851730  61.9464684  61.1583138  58.6457443
   8.4134048  11.4534366  34.1051316   7.7244860  11.5422356  34.7637200
   8.1258267  12.0097148  33.3811951  18.4584928   6.0925722  26.9849753
  18.2751834   6.0145897  27.9212165  17.9928911   6.8840826  26.7148662
  59.5514059   2.6033458  58.7456465  58.9692020   3.3448270  58.5799026
  59.6041727   2.1477765  57.9054642  85.1137543  18.2159865   0.9280165
  84.2706585  17.7894819   1.0813697  85.0470638  18.5659063   0.0395687
  61.5098810  68.1742907  28.6964726  60.9164238  68.9252615  28.7060571
  61.0433006  67.4940920  29.1821313  65.8470297  15.0630558  31.5161943
  66.1148167  15.8804166  31.0961461  66.5856504  14.4699430  31.3787532
  62.2211695  69.8393631  57.3372507  61.6383505  70.0611067  58.0634642
  62.9107809  70.5022478  57.3725986   0.5503587  80.6831169  24.9092031
  -0.2741686  80.5842876  25.3852487   1.0833101  81.2486458  25.4681015
  13.8577032   4.4769824  19.8014927  14.6229911   5.0518626  19.7925472
  13.6226821   4.4054425  20.7266307  33.0711389   7.5808322   8.8247371
  33.2856107   6.9135052   8.1728870  32.2348976   7.9424071   8.5311466
  20.2928257   5.0476390  58.7721920  19.3713117   5.3064072  58.7813473
  20.7714272   5.8602536  58.9359856  79.7572708  11.8215287  31.9061255
  79.3532372  12.0046413  31.0579157  80.0266171  10.9047091  31.8501902
  71.1708927  74.6909523  28.7410116  71.5681696  73.9930344  29.2618847
  70.6351089  74.2317629  28.0942440  85.4080582  26.8561745  21.3608336
  84.9643326  27.6329947  21.0203981  85.1761150  26.1594677  20.7468009
  72.6795197  77.8377008  43.6759758  72.4244118  78.4147787  42.9561615
  73.6172724  77.9940081  43.7874365  77.8212833  16.4290273  29.0453339
  77.5358105  17.2656488  29.4124889  77.5584841  16.4688742  28.1257796
  59.6496391  70.6379318  37.0695424  59.3278837  70.5348587  36.1739540
  59.5808601  71.5769243  37.2421718   2.8240734  30.5147314  11.2675881
   2.2369130  30.1672101  10.5962443   2.9497838  31.4319348  11.0243452
  82.3735714  65.0532627  20.0213981  82.2808743  64.4408083  20.7511520
  82.1392155  64.5409775  19.2475283   5.2418512  72.2670412  30.0237846
   5.8319509  72.4069881  29.2832232   5.1705843  71.3152885  30.0967169
  19.8897076   9.2843789  32.3765755  20.5780077   9.4379824  33.0237865
  19.6661747  10.1570404  32.0529604  25.4244184  13.9166451  29.1043425
  25.0385141  14.1907167  29.9363232  26.1793113  14.4937289  28.9888263
   0.1525434   9.4363463  35.7506704  -0.3145948  10.1123631  36.2415957
   0.4703459   9.8855883  34.9674630  28.7873626  76.9837618  69.6905947
  28.3146977  77.6318979  70.2128363  28.5319018  77.1714878  68.7874126
   0.6578865  17.6690257  22.2417808   0.3664507  18.3390880  22.8600955
   1.2395577  18.1344831  21.6407490   2.8632626  60.5815363  25.1084828
   3.0146134  60.2204418  24.2350221   1.9301215  60.4398298  25.2678490
   8.6664987  18.7427747  29.5833635   8.3565021  18.4795308  28.7168550
   7.8793728  18.7478149  30.1280093  14.3411517  14.6645749  45.0396204
  13.6711264  15.2417827  45.4058552  14.7550130  15.1847863  44.3509054
  37.4843621  24.8461556  20.8975649  37.0712924  25.6055450  20.4865479
  36.8978858  24.1167188  20.6970644  10.2477956  10.7796395  36.0662460
  10.8890545  11.4740586  35.9152555   9.5593947  10.9451282  35.4220796
  73.7401533  67.1430016  38.2832599  73.7333441  66.1992455  38.1235409
  72.8443623  67.3469162  38.5519767  30.4065490  19.4718063  40.2929449
  30.1370454  18.8879061  41.0019302  31.3448262  19.6002984  40.4320669
  78.8975525   1.5107186  35.6756186  78.5811234   1.0180540  34.9183965
  79.0893984   0.8421368  36.3332105  16.0089099   8.0727971  21.1678362
  15.6073701   8.0860865  22.0366383  16.8003511   8.6029446  21.2616301
  84.5775604  74.6685219  45.0408459  85.5259609  74.7230148  45.1582718
  84.3217373  73.8805294  45.5202770  31.7103958   1.6975179  66.9906330
  32.3284197   1.0749968  67.3737049  30.8646107   1.2511721  67.0313454
   2.7939266   3.7240231  20.4106927   3.3893651   4.3145677  19.9492371
   3.3703542   3.1088603  20.8640552  23.4461975   9.1465920  42.4372625
  22.9655671   8.3189672  42.4535227  24.2052507   8.9938509  43.0000544
  33.8634062  11.3907635  36.2775064  33.0336642  11.3773882  35.8004498
  34.4587779  10.8713949  35.7371163  31.6004229   4.2970917  45.0298023
  32.3049903   4.9335659  45.1511049  31.7194510   3.6692953  45.7424974
  25.5351424   3.8582626  26.2859082  25.2703929   4.5885319  25.7265830
  25.4355574   4.1913036  27.1777582  50.5601311  65.9729671  62.1194792
  50.4597855  66.9195223  62.0185041  49.7226143  65.6803179  62.4788618
   8.9735132   2.9528281  52.1695614   9.6300143   2.2571847  52.2058773
   8.9641428   3.2256594  51.2521172  33.0824423   4.1674289  20.5327511
  32.5484276   3.7923265  21.2330055  33.9116883   4.3889853  20.9564185
  10.1649535  12.5806558  45.2709150  10.9906089  12.6159203  45.7539082
   9.9387157  13.4977496  45.1160336  58.6029816  74.9255085  57.4289227
  59.5088291  74.9343681  57.1197367  58.1665707  74.2796898  56.8733215
   3.8744926  74.6686888  33.5029221   4.8009998  74.6605587  33.2626081
   3.4981290  73.9257956  33.0310249  61.8356895  66.6213322  36.1318493
  61.5272570  65.8127689  35.7227921  62.7188969  66.7440367  35.7838225
  51.9800854  51.4341879  67.4282694  51.3898087  50.7090759  67.2232866
  51.9597101  51.4969969  68.3831882  22.5286841   8.5779560  26.2693024
  22.0677900   8.4998000  25.4340172  22.2597480   9.4301111  26.6124296
  71.7713404  13.0818045  27.5504375  71.7843580  13.7674308  26.8826222
  71.5663910  12.2810817  27.0676637  44.0240002  15.0372016  32.9824591
  43.8141394  14.8938191  32.0596194  44.9747849  15.1467764  32.9976535
  21.2142086  65.3993416  36.9446182  21.0590005  66.3324451  36.7981386
  22.1615171  65.3297901  37.0629406   0.7933269  22.8637791  57.9572916
   1.4474404  22.2665977  58.3202553   1.3047560  23.5211611  57.4855709
  79.7920465  12.1712685  36.0483146  79.7233057  12.3521280  36.9857550
  80.2189922  12.9472864  35.6853461  83.9155674  12.0184934  38.6973333
  83.0384731  12.3890316  38.7955475  84.4824028  12.6104569  39.1918063
  22.5199151  13.4181142  15.6822956  21.9407296  13.1854928  16.4080119
  23.1180549  12.6747704  15.6054819  36.7194629   1.9647929  38.7650061
  37.5809455   1.9549540  39.1821170  36.9068480   1.9214433  37.8273296
  27.0654821  16.6672146  10.0814581  27.9080749  16.4611137  10.4861736
  26.8273211  15.8715415   9.6056288  79.8645973  76.4384699  21.9446707
  79.9867868  76.8398809  21.0843396  79.2596817  75.7135820  21.7870212
  61.9989347  38.9720225  68.9891481  62.0430040  39.6754050  68.3414268
  61.4812660  38.2877707  68.5648251  73.8746834  68.2437372   9.3235129
  74.3045330  69.0941525   9.2326903  73.8715792  67.8811121   8.4376651
   9.0431964  79.3732595  31.5091586   8.7659514  80.1626396  31.9741869
   9.8113579  79.6476793  31.0083055   5.1018900  76.1405706   8.9959908
   4.6877185  75.6225920   8.3057815   6.0296983  75.9110928   8.9436227
  49.5292091  53.3373499  66.4037657  50.4723454  53.1832266  66.3492250
  49.3811703  54.1112900  65.8603191   4.4641903  79.8940706  43.7725925
   4.5103225  80.1272678  44.6998072   5.3271526  80.1201057  43.4255552
   2.5375578  10.4394841  23.3677816   2.1339583   9.5724571  23.4078217
   3.0747977  10.4172504  22.5758791  24.4663739   3.0880845  37.0015430
  24.8770666   3.9505869  37.0619869  23.9428115   3.1276649  36.2012005
  29.9927616   4.6172825  41.4692497  29.3365479   4.9621609  42.0747900
  30.6204700   5.3321791  41.3637209  44.8515749   8.4660321  45.9219027
  45.5879164   8.1812918  45.3806448  44.8368454   9.4181544  45.8245468
  77.1861315   2.0761408  63.0638313  77.6325369   1.5257895  62.4203491
  77.3238802   2.9702252  62.7509880  72.5715208  78.3661890  20.5320072
  71.6319036  78.5286617  20.4485750  72.7340364  78.3793497  21.4752173
  22.6310086  30.4672933  14.6800232  22.0462060  30.9121990  14.0665936
  23.1775308  31.1660719  15.0395465  21.7163467  26.3098669  29.3679762
  21.0409117  25.6581497  29.5558238  21.4754701  27.0656872  29.9036527
  38.3779097  77.5076580  27.5622082  38.7379026  77.6671934  26.6897488
  37.7864647  78.2444572  27.7156711  14.9220264  19.9882174  29.5924783
  14.9037409  19.0389132  29.4711542  15.8429027  20.1909351  29.7571731
  27.3310137  21.4153838  39.2647457  28.0140638  21.3348985  38.5990167
  26.7416191  20.6809378  39.0931892   5.8413249  36.6878080  39.1626191
   6.1802787  37.4333549  39.6581006   5.3014261  36.2082148  39.7908950
  35.4621935   9.2450029  41.1924362  34.9912667  10.0013423  41.5423059
  35.3228021   9.2926025  40.2466393   2.6574111  13.4119570  21.2756562
   1.7108765  13.3823347  21.1362791   2.9625425  14.1127253  20.6994176
  72.5084591  80.0979328  41.9662619  73.1203794  80.2542114  41.2469816
  71.9285536  80.8594227  41.9570971  10.1411819  80.7272243  39.3585205
  10.8032370  80.6391811  40.0442028  10.6257272  80.6104374  38.5413241
  56.2635183   8.7412739  30.0749922  56.3574457   9.5720834  29.6089816
  55.3527546   8.7334281  30.3694010   9.9951786  33.2201743  39.6125150
   9.8644334  33.8830900  38.9345193  10.9194446  32.9821396  39.5396852
   7.2547144  73.5546923  24.9860597   6.4691222  73.0908823  24.6963096
   7.9375249  72.8840065  24.9995923  12.2868776  26.3616848  21.3306212
  12.2811055  26.9045806  20.5422926  11.3838243  26.0565495  21.4179158
  70.5664206  79.1821766  27.5304461  70.2188015  79.4185352  28.3904028
  69.8126554  79.2398739  26.9432998   5.5556023  69.9087000  11.9912469
   4.8326552  69.5608425  12.5133324   6.1701792  70.2586222  12.6362908
  60.9456968   7.6852465  12.3088014  60.8944750   6.8898857  12.8389037
  60.4557371   8.3381879  12.8086376  18.9388978  32.5143266  28.7109518
  19.8387146  32.1879816  28.7031126  18.5291839  32.1054578  27.9485917
   8.0475628  40.6253147  55.3672123   8.5077053  40.5303574  56.2011671
   8.4857643  41.3577604  54.9339247  81.5201378  30.0498629  43.9262867
  80.7210255  30.0010204  44.4509459  81.4015675  29.3860579  43.2469225
   0.2556101  14.9533439   9.1872537   0.9598376  14.9821389   9.8349160
   0.7068926  14.8934686   8.3452374  11.5176415   5.0528061  44.0520620
  11.8801367   4.7601807  44.8882437  12.1050406   5.7533240  43.7683916
  15.2278674  63.3503294  35.9866142  16.1672068  63.1773615  36.0494971
  15.1020336  63.6672497  35.0922084  11.8506086  22.3117185  30.9936047
  12.0997953  23.0691242  30.4640055  11.2089396  21.8454719  30.4577827
  33.7320232  14.9306917  34.1184282  33.5954356  15.5371833  33.3905911
  32.8510237  14.7425127  34.4419408   5.0131452  13.7684882  12.6460445
   5.1201779  12.8334510  12.8206348   5.5169612  13.9221120  11.8467939
  24.6821499   5.7349205  24.3499947  23.8404632   5.8281446  23.9037871
  24.5313668   6.0958445  25.2236247  50.0187826  44.9116373  69.7456646
  49.6298027  44.1427279  70.1624393  49.3346977  45.2394390  69.1618776
  25.5811596  31.0270739  26.2101960  26.2942219  30.5729175  26.6591001
  25.9059930  31.9188213  26.0856819  19.5863736  21.8544984  17.8126514
  19.6948791  22.0023108  18.7521243  18.7593675  21.3781786  17.7390790
  46.0868406  42.0387936  63.2497215  45.5356312  41.4049768  63.7087202
  45.6369638  42.1897411  62.4184227  74.7181606  76.9748974  30.2218986
  74.2010498  77.2662497  29.4709396  75.5773687  76.7669058  29.8548412
   5.9923518  10.2611411  30.7474375   5.7587963  11.0989499  31.1471367
   5.9048992   9.6246201  31.4569640   7.4447513   0.1451772  40.0010252
   8.0036044   0.4105306  39.2706108   7.6015401   0.8064438  40.6750965
  82.4020576  79.0860462  23.8868570  82.3058033  79.7312593  23.1863809
  81.5225315  78.7270689  24.0043473  25.9552956  16.0709929  40.0727320
  25.7473898  15.9754300  41.0021830  26.9009304  16.2179708  40.0527096
  51.5152311   4.8240986  55.0274134  51.8437004   4.8666230  55.9254837
  50.9840918   4.0281221  55.0040865  22.6155877  70.3044033  63.1513977
  21.9772053  70.2392149  63.8616419  22.3005581  71.0297012  62.6120186
  27.8145242  76.7274904  12.9359341  27.9022384  75.9886312  13.5381198
  28.1656766  77.4744940  13.4206128  16.4760661  25.7319212  25.9930038
  16.9576442  25.5626631  25.1832724  16.6796947  24.9833441  26.5537167
  29.5332980   7.5332725  20.7730031  29.6229720   7.3095900  19.8466372
  28.7395310   7.0778388  21.0536194  34.3518686  23.3235550  15.7505739
  34.8652673  23.9429903  15.2319646  34.3655491  22.5142789  15.2395761
  76.2538767  61.5767384  41.0326433  75.3759289  61.9407654  41.1463070
  76.3052130  60.8698797  41.6760302  59.5116186  73.5391998  28.0214000
  60.0136137  73.6605835  28.8273168  58.6138678  73.3908081  28.3184743
  63.9091825  69.9233484  21.7561102  64.2017746  69.0181923  21.8624425
  64.3999004  70.2464867  21.0004592  22.4213243   6.5075344  40.1738310
  22.3356557   5.9497136  40.9469604  23.2943511   6.8922496  40.2516127
  26.5129399   8.8106263  23.0529428  26.3939190   8.9684719  22.1163797
  25.6879187   9.0901923  23.4496975  20.9061313  13.3699703  35.3568602
  20.2080750  13.3159304  36.0095692  20.6950045  12.6844358  34.7230625
  13.6907172  17.1917963   0.3855722  14.0704954  17.8709948   0.9429692
  13.8860834  16.3722157   0.8398302  70.7396507  72.8270674  30.7969928
  70.6988621  72.0899630  30.1876926  70.7897425  72.4202871  31.6620088
  27.5202250  12.8419328  26.9748664  26.7747688  12.9061580  27.5718594
  27.9391551  12.0121253  27.2032237  47.2076654   8.1140345  44.1894436
  47.4613762   8.3524483  43.2978058  47.8577900   8.5425776  44.7461462
   5.0112826  12.9315019  15.9793591   4.7935542  12.3272491  15.2696383
   5.2525592  12.3640537  16.7114925  26.1313272   6.0150135  36.6616488
  26.3564277   5.9253633  35.7356238  26.9538212   6.2602860  37.0854139
  67.8000259  17.5288379  40.4809284  68.6226225  17.9029870  40.1653624
  67.6230526  17.9945362  41.2982607  21.4192438  10.6175506  34.4586706
  20.8981490  10.6640124  35.2602530  22.2332716  11.0720539  34.6755028
  73.7107468  74.7731066  40.4350519  74.0661478  75.6055689  40.7463884
  73.4940767  74.9336958  39.5166278  42.6092863  18.3984196  27.9788899
  42.3800182  19.3080020  27.7882886  42.2078562  18.2235503  28.8300705
  81.8059444  68.5836554  32.7773309  82.0396996  68.0815649  31.9966292
  82.6459312  68.8487911  33.1519794  71.6513014  59.3315077  20.1929688
  72.4859667  59.4767094  19.7474527  71.1784124  58.7243938  19.6237469
  17.5465274   8.5336757  26.5726042  17.6000726   8.5647947  25.6174111
  18.3365846   8.9838511  26.8715739   9.9234170  69.7773218  43.0790472
   9.2294729  70.4211998  43.2208061   9.5252949  68.9398813  43.3165836
   7.1358216   7.0400125  26.3349128   6.4082420   6.6312099  26.8036771
   7.9200721   6.6787374  26.7480278  18.9824569   0.0921649  53.3208656
  18.4892130   0.6474692  52.7170610  19.8880553   0.1531740  53.0168915
  67.5844240  79.0497875  22.8961658  67.3496485  78.2378721  23.3454967
  66.8255901  79.6199846  23.0197573  57.4602032  13.9910305  44.3429041
  56.5870571  14.2623556  44.0596485  57.6068735  13.1553876  43.8997126
   2.3645580  11.2311971  44.0357256   1.8616575  11.7770350  44.6401978
   3.1125402  11.7746818  43.7879801   5.0286824  18.4289384  37.9239774
   4.3870384  18.7434757  38.5608387   4.6958098  18.7316501  37.0791149
  22.9259539  17.3266602  37.3472500  22.1854782  17.7539599  36.9167328
  22.5297236  16.6277373  37.8675771  41.2079811  46.9905090  64.3863010
  41.8627691  47.6543379  64.1699314  41.6753483  46.3643742  64.9392557
  85.1372242  17.2056389  33.9147711  84.8117256  16.3059998  33.8842344
  85.8886623  17.1685112  34.5065355  40.9728241   9.1911286  48.9238071
  41.2528753   9.9812263  49.3859196  40.0296497   9.1438735  49.0800714
  15.9903109   5.6490922  62.9504251  15.8283269   4.7309628  62.7335596
  15.1575577   5.9623295  63.3034658  24.1599011   0.6312276  33.9889884
  23.8232064   1.5214658  34.0906978  24.3581915   0.5553303  33.0556321
  30.0508881  12.1393895  46.3426781  29.7444367  12.4937534  47.1773911
  30.2655053  11.2264705  46.5343761  42.1285963  15.7214558  13.9635277
  42.0928049  14.7750330  14.1022217  42.2885418  15.8201039  13.0249560
  26.4145970  24.9044752  24.2097282  26.8072176  24.1674399  23.7419033
  25.8312988  25.3114295  23.5691190  10.9571588  15.3568864  35.1232195
  10.1081896  15.4761899  34.6974850  11.5492153  15.9360898  34.6434021
  37.3512053  21.9894624  17.6304722  37.5067377  21.0755944  17.8689742
  36.5230823  21.9741726  17.1506679  37.5961804  18.4177113  23.8018632
  37.8820086  18.2305241  24.6960092  36.6710925  18.1721592  23.7897754
   1.7088568   8.2170784  20.7717562   2.1719301   9.0167427  20.5220938
   1.1372584   8.4859228  21.4909434  64.5939112  78.7883329  30.3106976
  63.8869429  79.4008970  30.5136466  64.9851227  79.1317081  29.5074010
  24.7835135  38.1878209  22.6922417  25.3770757  38.8282108  23.0844355
  23.9344358  38.6292791  22.6718831  31.3845015  26.0208273  24.1424251
  31.2768531  26.7233062  23.5012007  30.6894398  26.1725140  24.7828269
  34.7083330  25.8803034   1.4343615  35.0451827  25.4764175   0.6345865
  33.8174701  26.1491442   1.2100391  59.9566460   0.5538572  65.8068180
  60.0240707  -0.2777662  66.2759542  60.8584452   0.8692816  65.7476664
  15.7832754  36.5678191  30.7870793  15.6237149  35.7278228  30.3567529
  16.3493669  37.0443034  30.1798439  35.3127456   3.6522150  40.3563786
  35.5530286   2.9619628  39.7382808  36.0364699   3.6757070  40.9824038
  24.5649433  13.7366557   3.8219637  23.8242650  13.9822507   3.2676050
  24.6723700  14.4764805   4.4197509  54.0536547   2.0351267  18.3819211
  53.6277437   2.8919581  18.4078324  53.3559418   1.4282165  18.1347561
  33.8856912  11.8741107  21.8684864  32.9405999  11.9507205  21.7374778
  34.0723205  10.9456706  21.7291951  32.1645999  20.2090120  27.7766466
  31.4458823  20.8412027  27.7730918  32.0035267  19.6589363  27.0100260
  69.7156096  78.2703733  42.7557755  70.0670624  78.9762878  43.2983589
  69.1809845  77.7505064  43.3558941  21.3854671  26.3601494  33.8817191
  20.5566978  26.5088868  33.4264708  21.1294270  26.0434079  34.7479463
  25.3291082  15.9800398   5.2960676  26.0887790  15.5197275   5.6527805
  24.9280119  16.4040613   6.0547239  31.4281559  14.6042597  25.6151462
  31.1314893  15.2233279  26.2822104  31.4882374  15.1254249  24.8145151
  43.1002378   5.7566422  31.1982727  43.5688114   6.5885925  31.1309958
  42.4107790   5.9214073  31.8414950  12.5293994  12.9629600  35.6313992
  11.9251466  13.6516643  35.3542781  12.8933227  13.2817173  36.4573455
  39.4927621   1.0711522  20.9888530  39.5755386   1.7403781  20.3095007
  40.3927135   0.7979560  21.1668539   0.7886419  26.4604568  27.0891547
   1.5074411  26.0675073  27.5842810   0.0358833  25.8984876  27.2729349
  15.5990112   1.3840066  34.6152091  15.5637240   0.8059386  35.3773284
  14.7004938   1.6967949  34.5100379   9.4865853  25.5418992  21.5408230
   9.2861938  25.5128098  20.6052852   9.3760127  24.6386290  21.8376517
  82.0457649  33.4942794  29.4766760  82.1007347  33.6870742  28.5407043
  82.8084278  32.9433632  29.6529341  12.4520850   9.7237772  53.0454016
  12.4518204   9.2838019  53.8954926  13.2922757  10.1812077  53.0127239
  15.1404190  15.3410399  39.6232557  14.7416472  16.2056303  39.7217202
  14.5935643  14.7630525  40.1553392  12.8594732   6.4849627  24.3077660
  13.6605489   7.0074564  24.3466187  12.5683069   6.4249343  25.2176309
  25.4991269  14.9985325  15.6016660  25.2016735  15.5968535  14.9162734
  25.4303026  14.1291571  15.2071011  18.2288265   4.6205905  37.7852082
  17.3546433   4.2320797  37.8183103  18.2345295   5.1287508  36.9740534
  25.0247955  14.8397696  37.1547794  25.1017809  14.9212694  38.1053901
  25.1099277  13.9012086  36.9871807  55.5828810  38.4251714  64.5948744
  54.8157024  38.5957360  64.0484571  55.5553246  39.1071224  65.2660084
  72.2117233   2.5576699  35.3748012  72.5413561   3.1159753  34.6706223
  72.8146648   2.7090746  36.1026549   3.8972464  81.0922241  20.9807873
   3.1398532  80.9712887  20.4081082   4.5122078  80.4097462  20.7119298
   3.5188320   0.9299634  38.7678075   3.5727087   1.6910949  38.1898713
   2.6197058   0.6170024  38.6685133  43.2908535  13.7146294  30.6985927
  42.8425598  13.1233776  31.3033104  42.6212168  13.9553058  30.0583649
  31.2615466  18.7516510  29.8282337  31.6722226  19.2021370  29.0902376
  30.9791112  19.4559824  30.4116559  42.7871609  17.3163950   8.1158042
  43.0743170  16.8037593   7.3601723  43.4056902  18.0456018   8.1595498
  29.9148893  10.8761191  19.3646562  29.8886418  11.7313254  19.7938001
  30.2876830  11.0528982  18.5009396  44.7749758   1.7063588  19.6241915
  45.4377317   2.3680356  19.8220968  43.9674091   2.0561650  20.0006342
  12.2831225   0.4564162  39.3081713  12.1134067  -0.3258672  38.7833261
  11.4551830   0.6281106  39.7568011  67.4796724   6.4422476  40.8867645
  68.0635405   5.8603173  40.4002619  67.9196358   7.2921669  40.8693933
  23.2886696  22.1775126  28.9151931  23.2243347  21.4396763  28.3088183
  23.3398080  22.9483056  28.3499527  13.5929859  20.0646424  31.9288707
  13.8459086  19.7723138  31.0531974  12.8815293  20.6868505  31.7774773
  15.1255119  10.8830690  29.0385199  14.5418990  10.5439031  29.7171926
  15.0256824  10.2713001  28.3091331  21.5604043   6.5185052   9.5126420
  21.6599011   5.9852600   8.7239838  21.6522098   5.8972162  10.2350020
  11.2338066   8.0470866  22.9722595  11.4260828   7.5746161  23.7822199
  11.6167581   7.5053281  22.2822762  15.9989607  26.6523051  11.0013628
  15.9696686  27.5201559  11.4041173  16.8168342  26.6465163  10.5040884
  22.7231359  24.5437074  31.6405773  23.3968782  25.0808239  31.2236714
  22.4211907  25.0701666  32.3807812   4.1518959  68.3671856  31.5337300
   4.9526906  68.5293245  31.0350609   4.4568449  68.0031109  32.3648071
  12.1879435   6.8404233  26.9895172  12.2840297   6.4999282  27.8789353
  11.7449880   7.6815295  27.1016073  27.2678614   1.4522547  42.1896696
  27.6628113   0.5905259  42.0567369  27.4523664   1.9278097  41.3797092
  23.9361453   9.6529824  23.8273239  23.5464668   8.7790948  23.8538551
  23.2838035  10.1926565  23.3807445  35.7656479   7.6681823  10.1781642
  35.4902935   6.8633777   9.7391868  36.5802574   7.9135972   9.7395146
  32.0028234  21.2234569  23.0542469  31.3935995  20.7666612  22.4742341
  31.4404774  21.7082620  23.6583686  27.6926231  29.2745304  26.4800715
  28.5475183  28.9828300  26.1633730  27.0861363  28.5901451  26.1971879
  11.0045445  30.3051877   9.3312109  11.8956745  30.0660348   9.0764046
  10.5345225  30.3956199   8.5022765  24.5787430  11.0376728  35.1022243
  24.8094177  10.1604581  35.4080272  24.8276496  11.6158557  35.8233213
   6.3791305  22.1984673  12.3972678   7.0746642  22.7574778  12.0508981
   5.5912828  22.4807334  11.9326663  21.9515276  34.6842337  24.0777183
  22.3405147  35.2256513  24.7645855  21.4372921  34.0300441  24.5508242
  84.0715599  80.3486443  25.7404065  83.4112930  80.7911682  26.2737417
  83.6210918  80.1468754  24.9202800   4.2086482  31.2068176  33.5416460
   4.7105619  31.8879485  33.0940151   3.3211324  31.5609670  33.5975575
  38.9306211  19.0485978  17.2885025  39.2933059  19.0458381  18.1743264
  39.2703366  18.2482779  16.8881094  27.2079492  20.6895304  28.8969064
  27.6040578  19.9738050  29.3939638  26.9135380  21.3099790  29.5636892
  31.7951179  18.8803053  34.2630219  31.4887524  19.4507563  34.9679732
  32.2948813  18.1962264  34.7085619   7.7495259  23.9292932  32.6693678
   7.1662414  24.5722842  32.2661614   8.6041486  24.3599749  32.6884556
  25.6689286  24.7238159  26.8224859  26.0292220  24.5106721  25.9616756
  24.7326159  24.8470592  26.6664052   2.0153132  14.0435910  27.0189023
   2.4708195  14.8570597  26.8020749   2.0070563  13.5481000  26.1999702
   1.9649501  16.3899302  31.9228339   2.6795781  16.1244845  32.5016928
   1.8169402  17.3121095  32.1323848  30.1752186   7.8876573  31.5076852
  29.7259998   7.5787491  32.2944570  29.4701099   8.0846494  30.8910418
  42.8643942   7.9965168  21.6137242  43.5181999   8.3512461  21.0112786
  43.0243158   8.4557253  22.4382138  13.9732158   1.5365356  37.6283026
  14.3814290   0.7299761  37.3135710  13.2671618   1.2394567  38.2022905
  36.7479515  21.3852429  25.2469826  36.0474563  21.3208795  25.8961344
  37.3652744  20.6958175  25.4916024  30.0899386  11.6097152   6.1022329
  30.9014583  11.9249451   5.7043666  30.3686094  11.1964047   6.9193918
  25.2877617  31.6329932  23.5776258  25.2980900  31.3859415  24.5023370
  26.2102461  31.7504168  23.3507657  31.4400721  14.7379553  29.2796230
  31.2793660  15.4160619  28.6234403  30.8875132  14.9861169  30.0207877
  74.1233873  72.3038769  35.9386230  74.1553736  73.1487036  35.4897618
  73.5156012  72.4415350  36.6651726  29.6949124  21.9970846  24.7795272
  29.5856977  22.8515363  25.1969194  29.2798710  21.3808918  25.3830838
  71.3874912  70.0286818  36.6500163  71.9476366  70.7806683  36.8423319
  71.8314457  69.5765972  35.9325552  43.9427614   9.6288991  23.4874368
  44.2019987  10.4734111  23.1188869  44.6973133   9.3528509  24.0077043
   8.7700468  11.8712580   2.2159413   7.9322875  12.0798051   1.8025422
   8.5658300  11.7999220   3.1483781  32.0429540   9.4599432  32.7877712
  32.2236037  10.1617956  32.1624708  31.2769079   9.0114230  32.4296737
   3.8984981  72.6880360   1.3311006   3.4523448  72.6563931   2.1773735
   3.5070896  71.9745398   0.8271657   6.5443474  34.7676110  20.0962782
   7.3174357  34.4863224  19.6069503   6.8511558  35.5028391  20.6268811
  28.4261155   1.0379222  33.6110306  28.0216980   1.4217761  34.3890643
  28.6690140   0.1519078  33.8797498  43.4073973   7.1296340  35.9601736
  43.2687378   8.0764502  35.9368229  42.6609898   6.7903703  36.4541483
  35.1494622   3.4900370  28.8547850  34.7368145   4.0375853  29.5227265
  35.3692985   4.0980536  28.1489372   4.1064981  64.1279793  34.5507169
   4.7912541  64.2427111  33.8917947   4.5314863  64.3504620  35.3790402
  31.6669178  11.0193896  34.8918295  31.4051175  11.8175912  34.4329500
  31.7731380  10.3682899  34.1982746   7.6581836  77.2845840  32.8130746
   8.2661450  77.8629065  32.3524690   6.8381727  77.7771950  32.8469706
  11.9631028   9.3199366  13.0348706  11.0740983   9.6663809  12.9581988
  11.8423200   8.4020907  13.2781851  18.6717534  28.6142015  27.3487616
  18.6026931  27.8183842  27.8761482  19.4109583  28.4500909  26.7632079
  17.2434938   1.7619216  41.9662189  18.1729078   1.9133098  42.1379852
  16.9137526   2.6097608  41.6684389  81.6925621  77.4723625  41.6996050
  82.5942230  77.3351479  41.9901514  81.2256813  76.6885614  41.9892645
  36.1297822  22.7070856  20.0726199  36.5433168  22.5654507  19.2210567
  36.2138319  21.8663788  20.5224872  84.9178600  73.6027956  23.7437010
  84.8319054  74.0139532  22.8835869  84.3054962  74.0830469  24.3010163
  14.9120045  35.9489870  37.8036094  14.3588912  35.2123785  37.5434041
  14.7989273  36.5923023  37.1039009  80.8026505  26.0121489  19.9933004
  80.5925751  26.2510109  20.8960986  80.2995968  26.6272044  19.4595659
  15.6167901   8.2364041  37.4513769  16.2026787   8.1166410  36.7039657
  16.1539638   8.6793882  38.1082201  19.0139902   6.1764127  20.1049471
  19.5044494   5.4266459  19.7680032  18.8009107   6.6922712  19.3273103
  23.9330554  21.9368076  25.2106142  24.6830344  21.6135406  24.7113514
  23.7436652  21.2385964  25.8374023  77.3232222  30.4845357   4.2497674
  78.0443716  30.1532531   4.7849607  77.6741838  30.5021548   3.3594030
  27.9980397   7.9743630  45.5234671  27.9322696   7.5015545  46.3531399
  28.7882757   8.5069865  45.6133127   9.1230255   5.9259856  30.8089113
   9.0057862   5.9022617  31.7586088   9.5042437   5.0748575  30.5933070
  20.8853149   4.9621695  23.0633116  19.9803758   4.6882260  22.9140759
  21.2120581   5.1933706  22.1938181  50.7651472   6.5647161  28.1881166
  49.9331665   6.1167443  28.3409834  50.5252457   7.3593897  27.7114892
  11.2766898   1.9203258  26.2382293  10.6457067   1.2138973  26.3762546
  11.9087660   1.5588880  25.6168795  46.9448805  16.3607442   4.2019680
  47.3997259  17.1911454   4.0613303  47.3566914  15.7547688   3.5859838
  62.4498415  10.3027487  31.7929411  61.8597555  11.0357606  31.9682240
  62.9703474  10.5885243  31.0421824  41.7312336  22.9865265  20.2875304
  42.5744343  23.4178185  20.4262018  41.2659788  23.5602856  19.6787870
  15.7342970  16.2203538  35.8503985  15.5771244  15.4464293  36.3912940
  14.9066496  16.3639188  35.3914642   2.5984648  34.1639876  49.8924685
   1.8708223  34.2224407  49.2733145   2.6494187  35.0354505  50.2851391
   2.5111702  29.5780349  39.4704604   3.1954303  29.1924548  40.0175858
   2.5021920  30.5034661  39.7148490   5.0198352  76.5285349  31.0544515
   4.8153144  77.4531460  30.9148121   5.9018433  76.4218760  30.6981993
  37.7872038  16.3213217  14.1823745  37.7175117  15.7960165  13.3852363
  38.3612108  17.0482183  13.9407778  33.1683135  15.0894737  55.8459902
  32.7210045  15.3454888  56.6525888  33.7926006  14.4180393  56.1210775
   1.1379222  65.7643604   9.0384912   1.2880827  65.4618979   9.9341470
   1.5677828  66.6187000   8.9989632  28.8792086  22.4140334  32.6406312
  28.5582829  22.9717970  31.9320154  28.4061551  22.7159643  33.4160590
  19.1828835  34.7661185  26.5848541  19.1097450  34.1570735  27.3196673
  20.1130915  34.9891663  26.5503144  28.9028382  11.4063275  24.3250966
  28.4265161  10.7447088  24.8267031  29.6005177  11.6961706  24.9128604
  20.1644230  19.9272525  45.9749603  20.8872581  19.7456813  45.3743172
  20.0910544  20.8816242  45.9798574   6.4089775  19.5474982  30.6451440
   6.5317148  20.4773760  30.4541039   5.8742565  19.2226958  29.9207067
  10.0077307  26.8684196  40.4429817  10.5048811  26.1905813  40.9008121
  10.5201113  27.0503521  39.6551991  68.0274582  80.4387379  33.7975836
  67.2810078  79.8407030  33.8348627  67.7824831  81.1637115  34.3725920
  40.8141041  16.5994465  26.7203617  40.6820536  16.5669751  25.7728696
  41.2309885  17.4470735  26.8751788  23.9348936  29.0917802  23.6266947
  23.9007545  29.1271925  22.6707602  24.2113447  29.9697948  23.8891768
  20.1928401  10.6305397  16.0342693  19.2781997  10.4525352  15.8152258
  20.2593565  11.5853989  16.0272050  27.8994703  10.1152718  27.2897983
  27.1569061   9.9316365  27.8652191  28.5241318   9.4136631  27.4735737
  84.0462685   5.5075324  25.0603366  84.9902916   5.6298828  25.1607323
  83.8120747   4.8797569  25.7439184  46.0967445  15.1067793  20.3874660
  46.6663980  15.5436075  19.7542942  45.2343893  15.4959762  20.2422118
  38.0028915  20.3764224  10.6493533  38.6125112  21.0238481  11.0035229
  38.0751896  20.4736543   9.6998525  39.8181176  10.2683246  41.5095949
  40.2340031   9.7222096  42.1767044  40.2151585  11.1316013  41.6251183
  20.3427315  46.2130976  36.6177869  21.2180781  45.8664751  36.4450026
  20.2963185  46.2819624  37.5713778  15.9469450   2.1801049  21.9300842
  15.6323528   2.4975307  22.7765512  15.5677235   1.3052240  21.8463826
  46.2054873  63.2283640  63.3822584  46.1734724  62.5501823  62.7075148
  45.4350567  63.0623102  63.9254856  78.8649702  77.0539093  33.5014224
  79.2019844  76.5087461  34.2123771  78.0524635  76.6240263  33.2344723
  21.2681198   4.4104719  28.8982821  21.9715524   3.7946522  29.1036630
  20.4884958   3.8623738  28.8087988  34.8157382  37.3057842   9.0039992
  34.1016126  37.9104686   8.8024700  34.5211792  36.4633918   8.6578172
  49.1914654  44.1382933  19.1560984  49.9586821  44.7090006  19.1997445
  49.4761229  43.3945227  18.6250556  59.5727921  26.6582179  11.7367899
  60.4452419  27.0457673  11.6670585  59.4535732  26.5036464  12.6738739
  47.0266199  53.6174583   4.7230488  47.7486467  53.3875418   5.3078938
  46.6379309  52.7770281   4.4805115  47.7100945  62.7599192  27.3449469
  47.7048159  63.3817244  28.0726552  48.0446863  63.2629538  26.6024947
  44.6981335  38.7658691  16.9003296  44.9942541  38.1964374  16.1901915
  43.8269711  38.4376979  17.1230543  48.9504147  47.7520227   4.9293122
  49.7640133  47.6289034   4.4403040  49.0108776  47.1309090   5.6551188
  48.4845877  73.0576134  22.8598285  47.8386497  72.3787212  22.6646399
  48.8997364  73.2425213  22.0173955  47.1862888  60.4544973  31.6360211
  47.6781559  61.2084627  31.9613385  47.2049046  59.8266363  32.3582911
  52.8868866  59.8355722  30.6866765  53.0171347  59.8645544  29.7388244
  51.9622850  59.6126747  30.7946801  51.6878891  38.8890481  23.5837650
  51.6114855  38.4431243  24.4272971  52.5201607  39.3589926  23.6357951
  65.6059456  53.1419802  12.1695089  64.8766375  52.8034639  12.6888835
  65.1969671  53.4743738  11.3704562  37.3547792  29.8282623  69.1408062
  37.7352667  30.4897547  68.5629749  37.3981118  30.2190828  70.0135088
  35.6842661  55.7660723  41.8810558  35.6721568  56.5069628  41.2751150
  36.4914799  55.8800888  42.3826885  58.4060860  56.9615698  28.8708210
  57.7203560  56.3329935  29.0964317  58.0208302  57.4978590  28.1778550
  49.2327070  58.6614513  24.7509217  49.3844366  59.3511915  25.3970432
  49.8055887  57.9455662  25.0257802  49.6172476  57.6518297  16.8986547
  49.4636154  58.4763432  16.4373481  50.5482674  57.6711655  17.1201396
  68.9982224  57.0335197  30.0830078  68.5377502  56.5398741  29.4043970
  69.8501778  56.6032648  30.1557350  47.2598362  52.1695280  24.0504384
  47.5097084  52.9949522  23.6351323  46.3282347  52.0741177  23.8523316
   0.6443604   8.4974319  27.4442935   1.4455180   8.9281666  27.1462226
   0.1737229   8.2831490  26.6388035  49.0255547  70.0788593  31.5611410
  49.3614674  69.6473837  32.3467779  49.4313145  70.9457350  31.5719247
  44.4369745  48.0800247  18.7777770  44.7895479  48.0088663  17.8907251
  43.5739136  48.4772539  18.6613250  48.5684013  46.2690258  17.1011627
  49.3184233  46.3220024  16.5088022  48.6086988  45.3825235  17.4599373
  63.3558226  51.9405079  19.4975328  63.8473177  52.7608347  19.4559765
  63.3654070  51.7022514  20.4245567  41.6725397  47.6305151  23.4956527
  42.4716043  47.4307203  23.0079937  41.6738653  47.0081758  24.2229247
  65.8236170  35.0276661  27.0600867  65.4923725  34.7627616  26.2019873
  66.5555477  34.4340897  27.2279596  50.0163269  55.4158211  13.7033868
  49.6519470  54.7393179  14.2741752  50.2077055  54.9600410  12.8837085
  58.1153393  74.2782545  20.6313014  58.2536364  73.7009287  21.3821697
  58.2923937  73.7266970  19.8692846  54.5490456  51.6821241   7.4501085
  54.8868275  51.7299557   8.3444506  55.2874279  51.3618183   6.9320142
  27.3706865   4.0202057  30.8747602  28.1368566   3.4979090  30.6372309
  27.7322316   4.8579690  31.1640143  80.7753277  63.3453989  26.4169025
  81.2049389  62.6677752  25.8949018  79.9243546  63.4682846  25.9962130
  51.5464735  75.2911282  15.4812169  50.7365656  74.9434233  15.8545542
  51.2722206  76.0707140  14.9982452  51.1516285  69.2133284  37.6151395
  51.4683390  68.3927917  37.2374535  50.2918339  68.9952707  37.9749060
  83.8074207   4.9740046  14.3938041  84.6094704   5.3132182  14.7911382
  83.1481743   5.6437021  14.5758212  -0.1674143  52.0758247   7.3462021
   0.7090029  52.1716499   6.9734454  -0.4538504  51.2070322   7.0644385
  50.5192566  56.2915754  24.9389625  51.2895870  56.0361385  24.4314456
  50.4560471  55.6299257  25.6277680   1.1167573  77.0079708   9.3934721
   1.1411963  77.0987558   8.4409004   0.9662083  77.8968954   9.7150016
  84.7506523  59.7886229  38.6535239  84.9147320  58.9994526  38.1372690
  85.4379559  60.3980684  38.3844256  68.1505013  60.0537300  25.2250695
  67.4644518  59.4794893  24.8847461  67.6829386  60.6930065  25.7626009
  76.4335918  54.9747944  45.7377625  77.0398474  54.5215178  46.3236141
  76.9982481  55.4121113  45.1004648  53.8626480  52.6876497  26.9972086
  53.1311131  52.5310040  26.4000916  54.6109152  52.8482962  26.4223003
  55.8998537  70.1674652  39.4243717  55.9942770  70.9593916  38.8950634
  56.1922121  69.4594526  38.8503647   9.3791914   5.9095269  27.4703574
  10.3176165   5.8728850  27.2852969   9.1863889   5.0745571  27.8968358
  66.8745756  61.7697811  26.6667700  66.0282516  62.0867586  26.9822049
  67.3915577  62.5635576  26.5293789  72.4421787  77.2800446  28.0689883
  71.8254089  76.8233109  28.6410213  71.9115162  77.9402733  27.6231980
  62.3078585  47.8694153  27.8639817  62.7741718  48.1126261  27.0642114
  62.9825783  47.4944592  28.4300184  65.1042557  71.9468212   2.5173622
  65.3687239  72.1513796   3.4142706  64.4358301  71.2684536   2.6135612
  47.0513773  69.9591351  18.5592580  47.4369621  70.0826788  17.6919103
  46.2716770  70.5143785  18.5560513  52.5437832  79.4106007  43.3063841
  52.6898193  78.7244606  42.6551342  53.0687237  80.1492023  42.9979563
  67.3276758  39.7204876  39.8009396  67.8502464  40.4835272  39.5541024
  67.4594688  39.6352291  40.7451820  72.0686007  65.5862665  34.8411608
  72.9738712  65.3321314  35.0204206  72.0911503  65.9421253  33.9528537
  52.2807693  68.7713194  29.2664003  52.5714254  69.5097542  29.8016286
  51.3408279  68.9126825  29.1534591  62.1296835  70.6378746  24.0100980
  62.8535080  70.2291775  23.5354614  61.3422155  70.2935219  23.5887337
  14.5552170  64.9629402  26.6123533  13.6678314  65.3215122  26.6267180
  14.4373107  64.0409374  26.3837934  55.4632235  73.0483389  26.6060185
  55.3498840  72.5135803  25.8202577  55.7424545  73.9024496  26.2762332
  63.0863047  43.2978010  27.8591895  63.5348320  43.9396191  27.3086214
  63.7810421  42.7105188  28.1569576  49.8099470  78.7310171  38.8007545
  50.1758718  78.9709330  37.9494190  48.9234495  79.0919209  38.7907219
  59.1627741  69.2885399  31.7595601  59.5840788  68.4380722  31.8838096
  59.4901228  69.5968199  30.9145498  56.8598652  66.9171667  33.4884548
  56.4798689  67.3272181  32.7114797  57.7951097  66.8561983  33.2939410
  51.2472868  55.2780437   8.0427909  51.6331863  54.6392536   8.6421728
  50.3681803  54.9420166   7.8681713  81.9785500  54.9391365   0.6156833
  82.4532413  54.5219374   1.3346037  81.4582443  55.6230974   1.0372454
  64.4667530  68.8197279  47.8408623  64.1015053  68.9666796  46.9683743
  65.1446295  69.4892740  47.9326248  49.8728514  78.1388474  21.5663695
  50.1256037  77.2548485  21.8326306  49.3769884  78.4805250  22.3104191
   5.1350945  62.1123886  30.6256437   5.4956830  62.0079279  29.7451353
   5.8464015  62.5065184  31.1305547  22.0196629  19.3955588  43.8687134
  22.9500246  19.4532561  43.6511564  21.5833139  19.2769706  43.0250502
  40.4677916  69.6166277  13.1895471  39.7563815  69.1001320  12.8109181
  40.7549906  69.1086864  13.9483249  78.8920546  75.7326126  14.3652618
  79.6685362  75.9412527  13.8458550  78.2099295  75.5580950  13.7168181
  77.8607750  66.7444181  26.8196750  78.1238937  67.5067949  26.3041377
  76.9057369  66.7976952  26.8557310  51.4625454  72.5542402  17.6663375
  51.7978334  71.8928623  18.2716417  51.3049555  72.0759678  16.8523026
  82.1829224   9.6662807  28.4112692  82.5107861   9.9884617  27.5716615
  82.7968788   8.9748710  28.6587548  46.1241007  77.2537613  19.3247283
  45.8258867  77.5541115  18.4661901  46.3473749  76.3324881  19.1919088
  70.9762621  72.3744631  11.6555047  71.0625887  71.4303112  11.7872775
  70.8990145  72.4778461  10.7070458   0.4804840  71.0572577   8.6598623
   1.0761204  70.3503656   8.9083642  -0.0553254  70.6840563   7.9599619
  66.6916323  60.9585047  36.7545009  66.1404371  60.3703785  37.2707582
  66.8934059  60.4626703  35.9609842  64.1330194  61.7692232  39.6840477
  63.8704824  60.8574724  39.5574951  63.9914560  62.1798372  38.8310599
   3.6400947   6.4517123  21.7715001   4.3774423   6.6616958  21.1983871
   2.9474637   7.0546150  21.5013075  51.9864702  60.3712654  23.3294296
  51.3442373  60.9493160  23.7412906  52.0821714  60.7140875  22.4408650
  52.5300074  55.4461718  23.0842710  53.2524490  55.6921339  22.5065041
  51.8136358  55.2225256  22.4901128  57.6374340  61.7744064  27.6848578
  58.4722281  61.7892027  28.1529713  57.8595066  61.4583349  26.8090653
  59.0623236  68.0731153  26.1461377  58.5085678  68.0214071  25.3670907
  59.1641045  69.0114021  26.3057995  61.3535070  25.9040785  17.2656846
  61.4698792  25.5374956  18.1422150  60.4051733  25.9200692  17.1367192
   7.9090017  37.0140076   9.9886626   8.5734844  36.4048767   9.6667105
   8.3924609  37.8185177  10.1764536  80.4803944   1.5552564  16.4360726
  80.5331898   0.6089091  16.5697598  80.6524467   1.6751787  15.5021310
  15.1975572   6.3121569  29.5943189  14.3143201   6.0876811  29.8871231
  15.6664824   6.5367234  30.3980041  59.9070692  61.2538910  31.0855174
  59.2406416  60.5716944  31.1674666  60.1153183  61.2743139  30.1514697
  50.5142927  58.1226778  27.7614641  50.3825235  59.0254164  27.4717498
  51.2451029  57.8051710  27.2310543  44.9476385  68.1328058  27.0330882
  44.5573759  68.3624029  27.8764224  44.3101072  68.4319305  26.3847756
  68.8250017  69.9948072  10.8242428  68.1523037  69.8855305  11.4963818
  69.6524811  69.8984957  11.2956595   5.9446496   1.4035487  28.2284951
   6.3537514   1.7722785  29.0113783   5.0962073   1.0800631  28.5313702
  56.5653038  75.3390598   8.5958284  57.3679066  75.5539036   9.0711194
  56.0100222  74.9084377   9.2457998  68.4164333  72.0403099  23.8198185
  67.4749565  72.1594191  23.6946774  68.5053492  71.1367178  24.1228795
  85.8288670  20.5538416  22.9454565  85.9443855  21.0500622  22.1351147
  85.0775814  20.9649324  23.3730149  51.1437416  64.3714809  35.7797480
  50.6912804  63.5294294  35.7301116  51.7588186  64.3564701  35.0464797
  24.4460416  31.5335584  67.9759789  23.8972020  32.3083687  67.8548288
  24.5591140  31.1798191  67.0937586  58.8953733  78.5193491  25.5728960
  59.3347073  78.1163597  24.8240185  58.7826920  77.8034210  26.1981869
  69.2302799  74.7361565  36.9661260  68.2864428  74.8290014  37.0956802
  69.4417095  75.3711462  36.2817860  59.1222382  71.6145420  11.4471388
  59.8950672  71.0531950  11.5092325  59.2511225  72.1109915  10.6389570
  74.0031672  62.1202612  43.1417894  74.8483706  61.7856359  43.4416151
  73.3862591  61.8601513  43.8258934  71.8688869  42.4132204  21.9193196
  71.8256807  42.5844479  20.9785509  71.0701990  41.9213820  22.1101761
  83.7091541  14.8062086   9.5736909  84.6186829  15.0685775   9.4317365
  83.5753536  14.9061871  10.5162048  44.3282986  80.0148296  46.9403267
  43.9870214  79.7554779  46.0844660  44.5107126  79.1876507  47.3861217
  76.7015028  61.9440222  38.4351206  76.7084122  61.8235922  39.3846893
  76.0041237  61.3660955  38.1254578  52.7229118  65.5220222  18.4687662
  51.8238449  65.6742668  18.1776929  52.8264189  66.0888052  19.2331469
  51.3851881  67.7235413  33.8005328  52.0433903  67.5916338  33.1181812
  51.8457890  67.5328827  34.6176767   5.8574992   8.6570501  42.8943968
   6.4322239   9.4186836  42.8179932   5.2235532   8.7632585  42.1851301
  74.3304062  65.0690126  62.8899288  74.0650368  65.0731468  63.8095999
  73.9659548  64.2563915  62.5391340  41.1080217  72.2138453   8.6136061
  41.9541073  72.6428652   8.4858912  40.9975958  72.1801090   9.5638168
  72.8837872  76.4259434  64.0417671  73.5617208  76.6857052  63.4179354
  72.7872562  75.4825687  63.9115429   9.9948537   0.5073452  31.5483737
  10.3229427   0.1419183  32.3699903   9.0617698   0.6513675  31.7059946
  52.5724506  52.7298737  24.5326924  53.1307220  52.5515604  23.7758780
  52.5788260  53.6834478  24.6156526  75.5306339  52.5845194  44.4095802
  75.5191612  52.0686674  45.2158022  75.1954412  53.4426117  44.6694851
  56.3315487   0.7335752  28.0581927  55.4105806   0.5062620  28.1861925
  56.7960119   0.2416306  28.7353158  63.1186008  79.2704678  25.9223866
  62.9290295  78.4724474  25.4289699  63.0963850  78.9961815  26.8391776
  54.6649456  30.3981948  68.6846066  55.0281239  29.7743440  68.0560017
  55.1326752  30.2166057  69.4997692  78.4914684  50.5383492  15.8797657
  78.3125591  50.6222725  14.9431860  77.7091551  50.1174927  16.2362778
  69.9140453  76.8500090  25.0830960  70.1813936  76.2688398  25.7951355
  69.3253040  77.4809933  25.4971862  65.8119917  76.2648773  44.9282837
  66.6214228  76.3045549  44.4188929  66.0442829  76.6419983  45.7768440
  62.7552700  77.6404142  59.5630455  62.4751616  77.1114731  58.8160563
  62.5689936  78.5420990  59.3013287  69.0851307  54.5554018  43.9276171
  68.3241272  53.9752293  43.9500427  69.6048450  54.2983007  44.6892118
  41.5247440  75.5659866   8.1595802  41.1487007  75.1538658   8.9373833
  42.2838879  75.0240040   7.9446697  60.5713701  72.7254915  40.7575607
  61.5108442  72.8315067  40.9071445  60.1588011  73.2125854  41.4708328
  71.2660074  69.4479322  23.2514715  70.8622837  70.1705313  22.7707553
  71.7673540  69.8734808  23.9470172  48.2239056  76.0067415  17.6361346
  47.6501608  76.7388725  17.4102390  49.0939426  76.3986492  17.7114487
  54.9104738  61.8119383  27.2772026  55.8628082  61.7770433  27.3670769
  54.7647715  62.0424128  26.3596606  50.9497404  58.1200790  13.2844234
  50.9397125  57.1825218  13.4770942  50.5110645  58.5232544  14.0335834
  35.5397606  61.1957502  45.1154661  35.5065417  61.7423725  45.9005356
  35.6153822  60.3017664  45.4490995  58.8269758  63.1562519  34.8566198
  58.2305861  62.4632072  34.5733380  59.0165901  63.6499882  34.0588093
  53.0358696  80.9218025  38.4907389  53.7255573  80.7285786  39.1257381
  53.4952497  81.3222504  37.7526021  45.3542948  64.8944330  39.6789551
  44.5699024  64.7436905  40.2064419  46.0116434  64.3086386  40.0544167
  62.7940893  78.2127619  50.6807470  61.8444681  78.1227684  50.6010580
  63.0331945  77.6121426  51.3866615  22.6860166  35.5168915  15.3378904
  22.5067830  34.8482752  14.6767867  22.2243524  35.2114224  16.1187792
  57.6774788  76.6244507  29.5478940  57.3364973  75.7921553  29.2203951
  58.5061693  76.3949347  29.9683976  49.2945528  48.5543537  22.6295495
  50.0016975  49.0746021  23.0110168  49.2847395  47.7484179  23.1458902
  80.3506088   7.0198750  36.6437650  79.8666573   6.8091691  37.4422789
  80.7005596   7.8969717  36.8001914  78.5962105  18.5645258  62.4831820
  79.4566298  18.3709300  62.8552485  78.7846136  18.9063585  61.6091776
  79.4377184  65.5276299  32.5627422  79.9046707  66.0213757  33.2368374
  78.8496494  64.9519730  33.0516434  16.8317223  47.9127264  37.1777844
  16.7608118  47.6634789  38.0992413  16.9405806  47.0830822  36.7129469
  68.4226084  76.4110708  19.9453282  67.6404285  76.0039425  19.5729411
  68.5269880  75.9922171  20.7996678  16.8304801  10.4075611  34.2850423
  17.1540189  11.0115504  33.6166477  17.2055089   9.5604819  34.0441227
  59.3118668  48.6548233  20.3059912  59.3376303  49.5698023  20.5859661
  58.4018517  48.5089874  20.0474668  75.7242489   6.5045959  25.4606342
  76.5914488   6.3331825  25.8278036  75.7280397   6.0532182  24.6165514
  55.4156923  77.2923660  31.0046339  56.1329269  77.4023342  31.6289067
  55.8476448  77.2238207  30.1531935  49.6555185  46.4413929  24.4636607
  49.5838022  46.0769224  25.3458428  49.2887402  45.7648516  23.8944530
  56.9206381  67.0400286   3.3510271  56.3295746  67.2895670   2.6406693
  56.7772198  66.1002779   3.4629777  85.7279491  14.3642235  19.1025949
  85.7136917  13.8707328  19.9226534  85.3187561  15.2018070  19.3199503
  16.5186787   6.3530046  23.8748360  17.2016132   7.0089328  23.7348700
  16.8502176   5.5660248  23.4424281  81.3340187  34.8705959  34.1674948
  81.0478210  33.9985657  33.8956857  81.1683369  35.4254484  33.4053159
   1.5338701  74.1351938  24.1018367   0.6350338  73.9623833  24.3819475
   1.4859538  74.9771738  23.6490655  59.5893669  70.7463312  25.8834171
  59.4917870  71.6764545  26.0873318  60.0794125  70.7314920  25.0613070
  80.3658199  11.1635935  25.6045651  79.7303534  10.4593444  25.4763389
  79.8514175  11.8887198  25.9592628  50.4833555  52.2247601  22.2319484
  50.1014185  53.0975866  22.1395516  50.5192995  52.0778799  23.1771278
  57.0574093  62.4698400  30.2920508  57.0733881  62.1313572  29.3968368
  57.8487682  63.0039978  30.3603029  80.5565166  60.9189987  18.4924746
  80.9509850  60.6494284  19.3219066  80.9399223  60.3302622  17.8423810
  73.8340521  34.6555114  28.9866185  73.4721708  35.4613543  28.6179829
  74.3926525  34.9507880  29.7056484   9.1117507   3.3928153  49.2343378
   8.8400829   2.5549608  48.8596010   8.3629906   3.9722428  49.0934372
  76.8580246  66.3525629  48.1456232  77.2511911  65.8412409  47.4383736
  76.1588573  66.8500328  47.7214527  55.3346157  66.2035942  24.9376774
  55.0855732  66.6515684  25.7460880  56.0091352  65.5802488  25.2073002
  67.6061392  64.5477819  25.9208369  67.1144772  65.3502941  25.7462621
  67.9052544  64.6420908  26.8251991  56.8077517  45.0406027  21.2490606
  56.9397306  45.3694725  22.1382523  56.0647202  44.4417143  21.3230157
  59.9494457  67.4022245  16.9071805  60.5279446  66.9388723  16.3014770
  59.0874434  67.0128727  16.7602479  38.6033392  39.3666172   7.0457637
  38.1784821  38.5272646   6.8690795  38.7473631  39.7490597   6.1801857
  68.6282825  55.1473236  37.7813029  67.7588272  54.8129368  37.5611591
  68.6447620  56.0314035  37.4147511  51.3650513  52.8584146  29.4902515
  51.4490271  52.8397274  30.4435778  50.4565001  52.6065874  29.3248653
  12.0309842   6.7596090  20.6131554  12.3108792   7.4588627  20.0224471
  11.5315795   6.1617541  20.0569201  61.7630625  80.2105808  58.6862755
  61.1799335  80.2774525  57.9301548  62.5807047  80.6138229  58.3945751
  69.1480589  79.8525238  29.7148991  69.0583754  80.7738972  29.9583387
  69.0103626  79.3742609  30.5325413  66.4213657  57.0522356  13.7420046
  67.0851469  56.4097309  13.9926350  66.7850637  57.4830627  12.9684794
  74.3993330  44.7184134  14.0098071  74.6156597  45.3305006  14.7132134
  74.6846104  45.1613903  13.2106709  72.8279734  65.2758503  28.3393049
  72.3853540  64.4741106  28.0608535  72.2208977  65.6821156  28.9578867
  56.8102217  79.6111536  28.5929060  57.0008326  78.9638233  29.2717743
  55.9043026  79.4333887  28.3400440  66.1476660  51.9119692  28.5340476
  66.8119144  51.4205694  29.0173006  65.3142309  51.5848923  28.8726306
   0.2712750  62.6579905  33.6073184   0.4644523  62.0821714  34.3471503
  -0.5507416  62.3217058  33.2503414  77.1030426  63.8133955  20.0936961
  77.1748924  63.0668736  20.6884861  76.2050629  63.7720490  19.7648239
  43.0489302  65.8054686  15.7961309  42.9225349  65.9085417  16.7393339
  43.1158638  64.8596048  15.6653988  69.3358088  51.5629721  31.3165617
  69.5901585  51.2178516  32.1723819  68.4507847  51.9028091  31.4487505
  62.8463030  55.3783464  28.9471865  63.1953907  54.6753263  28.3993459
  63.1740046  55.1830626  29.8250842  69.9594784   4.2812178  22.1444225
  69.2692184   4.0905851  22.7795887  69.8161793   5.1961470  21.9023442
  62.7671337  64.6999598  31.7409539  62.8882742  65.0139046  30.8448553
  63.6464787  64.7093868  32.1189761  69.5815754  43.5028601  28.1303716
  70.1992607  43.4289503  27.4028850  70.0720787  43.1964827  28.8931084
  15.2129197   1.5020569  47.6383686  15.2086830   1.9653967  46.8007946
  14.7589076   0.6787097  47.4589157  81.4046001  58.6500263  20.2388000
  80.7740879  58.0784893  19.8005867  82.2033882  58.5696125  19.7175443
  62.8631401  31.5633106  42.6118946  62.3190737  30.8434415  42.2924995
  63.0937624  31.3108158  43.5059261  82.0868301  59.0288591  12.9347801
  81.5759754  58.3834743  12.4461722  81.5709591  59.8333406  12.8807354
  62.9517746  65.4205751  28.1865644  63.5142136  66.1409426  28.4711146
  62.7752924  65.6045580  27.2639394   9.8308158  11.2636733  19.9182916
   9.6278203  11.1721408  20.8492303   9.7966242  12.2066140  19.7572803
  63.7279415  59.3647671  34.0334964  64.5266151  59.1455173  33.5536170
  63.3380365  60.0824785  33.5344005  67.8196287  76.3243151  39.1940069
  68.4661818  75.6203842  39.2457557  67.0532656  75.9164667  38.7907934
  37.5374317  58.1440020  17.7098823  38.1191993  57.7064037  17.0883644
  37.9148698  57.9508400  18.5680556  15.9653354  45.6617260  63.0955505
  16.0525465  44.7646618  62.7732182  16.0153818  45.5799484  64.0479374
  54.7708082  62.3586321  24.6886992  54.9172115  61.4762545  24.3478060
  54.4984198  62.8681040  23.9255023  85.5293179  73.7213612  18.8863587
  84.7905159  73.8889027  18.3012688  86.1348248  73.1960869  18.3632052
  74.0455389  75.8995867  49.3800926  74.4514227  76.5399265  49.9644327
  74.1973019  75.0561857  49.8065615  62.3433018  47.0096684   9.0620732
  62.3108912  47.5435066   8.2682216  61.9229603  46.1861801   8.8142645
  46.0734463  71.9353914  22.5079155  45.8356762  72.4702358  21.7505264
  45.3067398  71.3832712  22.6614165  61.8202305  58.3423328  30.4339719
  60.8708382  58.4474134  30.3719640  61.9883108  57.4695349  30.0787139
   2.2938892  57.0838451   7.7414155   3.1323370  57.1124125   7.2805238
   2.2323802  57.9326534   8.1795579  23.6395717  10.5354142  39.8532891
  24.3890667   9.9432820  39.7911072  23.2632542  10.3557885  40.7148886
  62.3932314  74.3392849  33.3035898  61.7679691  73.6948156  33.6351633
  63.2496214  73.9335060  33.4383941  20.8058000  10.2829278  59.0367031
  20.9130096  10.8630431  58.2829094  20.0446272  10.6314433  59.5008039
  18.9609540   1.3678533  36.3488364  18.3313727   2.0513725  36.1193562
  18.5560215   0.9059186  37.0829177  56.8090248  63.9656162  16.5135169
  56.2167263  63.9803886  17.2653139  57.0032835  64.8873472  16.3434982
  71.3840437  12.3023081  34.4137549  70.4740238  12.5727069  34.2913580
  71.4582014  12.1288002  35.3521729  83.6499405  80.7776451  38.4335494
  83.2203007  80.7886505  37.5782633  83.4251022  79.9239683  38.8035655
  64.3960609  80.7210553  15.9668958  63.5300012  80.9463169  15.6271470
  64.9039044  81.5279916  15.8821559  61.8520212  60.7339096  23.7361813
  61.2337542  60.0094032  23.8313961  62.4818134  60.6061316  24.4455934
  64.7566509  63.6444044  41.6496563  65.6925631  63.4488773  41.6951609
  64.4041109  62.9892731  41.0473680  24.3904829   4.0967083  63.5674763
  24.4910479   3.7723175  64.4623995  24.5825124   5.0324345  63.6288977
   6.2304282  65.6431532  40.2648211   6.7502773  65.6561756  41.0684490
   5.3837025  65.2863073  40.5330515  73.9158821  60.3518867  39.1006494
  73.3203983  59.6147394  39.2357326  73.4590912  61.1017513  39.4818068
  15.7587910   0.7179816  29.2099047  16.1888921   0.7097142  30.0649929
  16.1030412  -0.0542628  28.7611723  11.1939609   9.2314106  27.5916314
  11.1104643   9.9331385  26.9460011  10.2973282   9.0662789  27.8832030
   9.0737921  14.6195972  17.0606863   8.8579750  15.5233169  17.2907841
   9.2088288  14.1838980  17.9022110   7.7916265   3.3342993  25.4324532
   7.1668631   3.5727602  24.7475910   8.3539629   4.1036958  25.5221128
  78.7744999  68.8371134  40.3358269  78.0147028  69.2523527  40.7438898
  79.0805626  68.2054520  40.9866476  36.6980767  15.7312369  19.7655737
  37.0641017  15.0784039  19.1688597  35.8633614  15.3569150  20.0472903
  55.4850245  79.1761017  20.1082826  56.4284134  79.1503811  20.2682495
  55.1363325  79.7152519  20.8181834   1.5084599  75.6055593  18.6740315
   0.8080963  74.9594927  18.7652314   2.2024512  75.1419401  18.2053471
   2.8206363   1.5810640  25.6219339   2.0584965   1.0824886  25.9165478
   2.5203311   2.4897730  25.6047058  70.9402561  70.3018713  27.2781920
  71.0566807  70.3621197  28.2263732  71.6883183  69.7860098  26.9773269
  69.7057819  72.9842615  42.6467705  70.6175518  73.2755899  42.6408958
  69.6802711  72.2644424  42.0163393  72.0834160  61.1767292  27.2244692
  71.4690208  60.4436159  27.1883917  71.5322113  61.9552851  27.1453762
  49.2322111  75.1763105  52.8890419  48.5853291  74.5553160  53.2239151
  49.7244835  75.4500484  53.6629725  57.8188896  65.2159739  36.6220188
  58.3957100  65.5929613  37.2863913  58.3570671  64.5568228  36.1837125
  12.1908772   3.6320931  46.5348339  12.1895409   3.9078954  47.4514389
  11.3256407   3.2456422  46.3997316  52.5640869  80.4321671  24.2243409
  51.7844439  80.6627274  24.7295499  52.2814322  80.4828453  23.3112311
  63.1402588  66.0240364  25.4798579  62.6801395  66.8415976  25.6698990
  63.0967617  65.9405565  24.5272994  45.8514023  79.4490147  42.6556635
  45.8665609  80.3996563  42.7665234  46.7384624  79.1675901  42.8796291
  32.5329137  16.4033782  31.6358161  33.3192062  16.9208515  31.8095899
  32.1183133  16.8401659  30.8918047  70.0102329  29.5081615   2.8903028
  69.7079611  28.7355113   2.4129374  69.2079306  29.9774861   3.1189483
  10.7453096  24.1148305  25.9057307  11.5230572  24.6633935  26.0078120
  10.1945031  24.3382072  26.6560292   8.9066958   2.0703608  15.5807674
   9.5323324   1.3983397  15.3102148   8.9159977   2.7076754  14.8666418
  77.5749063  75.5263948  36.0364342  77.2832823  76.3905239  35.7458019
  76.9679403  74.9156332  35.6183481   7.7465761  22.5571346  28.1854653
   7.3870146  22.4975491  29.0705633   8.6131024  22.9459310  28.3046341
  14.7068000   5.5467212  48.1938410  15.3072441   6.0976720  48.6959887
  15.2602983   5.1284492  47.5343561  67.5740004  75.4426861  28.7744832
  67.2304821  75.8631134  27.9861522  67.7221775  74.5331383  28.5156536
  60.0694847  69.4269943  22.7852321  60.3486252  69.0797710  21.9380283
  59.2880821  68.9201880  23.0060959  77.4809599  64.7285557  41.7610884
  76.8029404  64.9666023  41.1287451  77.3329782  65.3149128  42.5030565
  67.2723675  62.9114294  42.1748161  68.1836462  63.0906057  41.9430685
  67.3205996  62.1749640  42.7843475  62.8020906  73.7535429   3.8278177
  61.9555092  73.6605597   3.3909127  62.6287889  73.5163832   4.7388351
  65.4181004  63.3446646  48.1372595  66.1008644  63.9331818  47.8152227
  65.3459644  63.5489798  49.0696144   3.3679605  72.7592993  12.6032555
   3.3751607  72.0121574  13.2015538   2.5746167  72.6403427  12.0810616
  80.9785557  74.9334145  34.4812226  81.4867973  75.7103777  34.7141552
  80.9702969  74.4045687  35.2790213  76.3907671  65.5690527  39.1632271
  75.7982206  66.2221813  39.5354414  75.8126783  64.9374199  38.7353420
  57.2722578  52.0236444  28.4335947  56.3243866  51.9783545  28.3082151
  57.4044752  51.7813015  29.3501210  77.4070024   0.2458453  21.4976382
  77.7154398   0.3600721  20.5987215  77.8007221  -0.5786428  21.7830062
  51.9283390  73.8429832  12.4913490  52.5887251  74.0727234  13.1450582
  52.1376133  74.3925381  11.7360854  85.1768112  10.5904567  13.1930947
  84.5452213  10.0943172  12.6723564  84.6405315  11.1866438  13.7157762
  11.8355882   2.0402333  21.9633031  12.0543003   2.8838804  22.3590994
  12.1516609   1.3915059  22.5921750  71.4618206  75.8085680  22.3549414
  70.9344816  76.4005947  22.8912711  71.2816954  74.9384451  22.7108574
  65.4213667  74.4414186  32.7275610  65.5015135  75.1606417  32.1010447
  65.7313824  73.6720228  32.2499037   4.2500928   9.0075314  11.2914455
   3.6715871   8.7095571  10.5894673   3.6776507   9.0919691  12.0539498
  50.2153635  78.7230396  45.2427673  49.6594286  79.0705299  44.5453310
  51.0953951  78.7156391  44.8663139  45.1970673  78.0612755  16.8705571
  44.7047615  77.2835732  16.6077912  45.4280758  78.4885168  16.0457373
  58.5174990  66.4705181  20.3641343  57.6070213  66.3318920  20.1032758
  58.9398861  65.6239700  20.2186155  79.3021870   7.5837415  52.9843283
  80.1614285   7.1939141  52.8231668  78.6890507   7.0107287  52.5239468
  71.4809895  75.0122976  19.2679572  71.9886494  74.2756653  19.6083653
  71.3280582  75.5704594  20.0303864  47.4759912  73.3786392  28.0484700
  48.3630991  73.6875725  28.2323980  47.5320292  72.9972601  27.1723175
   7.2174591  75.8780527  38.0794477   7.8075194  76.4405584  37.5778031
   6.9672596  76.4079237  38.8363290  56.6945076  80.7200336  13.6506534
  56.1640930  80.5778885  14.4346726  56.4991093  79.9692726  13.0899298
  23.0033398  43.6546469   1.9683163  22.9430866  44.6099281   1.9620009
  23.6782885  43.4529400   1.3202500  81.2405872  71.0938215  33.8845634
  81.1393738  71.7774868  33.2223010  81.4525318  70.3055573  33.3846116
  24.9672771  79.5453262  54.0483236  24.7117758  79.2009830  53.1925344
  24.8289990  78.8149548  54.6513748  78.3247375  22.9519463  10.4944932
  78.1269979  23.1835103   9.5870185  78.7787867  23.7187648  10.8438623
  23.0891252   1.8612824  39.2840576  23.8151717   1.8439339  38.6605310
  22.4628806   2.4782445  38.9053655  10.3314483   6.5287918  47.3126888
  10.7492805   7.2039104  46.7780256   9.7851223   6.0399276  46.6972446
  11.2743604  17.8956008  61.1923504  11.6230583  17.3330402  60.5008507
  12.0335090  18.1046999  61.7365932  68.9907837  66.0075760  32.7475572
  69.4741297  65.9111309  31.9270039  69.2649412  66.8589926  33.0883789
  47.1734333  79.7786760  45.8447599  47.1643972  78.8514280  45.6073523
  46.3360214  79.9211121  46.2859917  65.6714821  67.4197006  50.2935028
  65.1659870  67.8911209  49.6313334  65.9395695  68.0954552  50.9161663
  62.3887396  68.5724926  26.2303567  62.1913004  69.4255304  25.8436012
  62.1422958  68.6639881  27.1507502  85.0170231  70.8952570  16.9052386
  85.9665871  71.0149860  16.9206154  84.6641159  71.7458105  17.1664739
  51.2137651  71.9629192  38.2062483  50.6422997  72.2767448  38.9070868
  51.1907005  71.0094357  38.2872725  81.0061550  48.8136721  17.2295296
  80.5384254  49.6263027  17.4221146  81.0630512  48.3644390  18.0728495
  81.6585255  68.8050461  26.4032960  81.2450886  68.5699272  25.5726171
  81.6500378  67.9947853  26.9128466  75.0043917  60.1044703  31.3514400
  74.7165775  60.4790974  30.5189443  74.4704103  59.3171167  31.4571238
   0.9795682  73.4113073  26.7235899   1.6882384  73.5475254  26.0947323
   1.3801278  72.9041719  27.4297047  58.9163113  72.4608707  56.0803890
  59.7913408  72.8400230  56.1628437  58.8553810  72.1964502  55.1624584
   4.6948336   0.2007071  24.0621519   4.0454815   0.5999438  24.6411014
   5.1735257  -0.4091104  24.6235800  66.5230751  61.7227793  22.7040935
  66.2299156  60.8560801  22.9853797  65.9721661  62.3328257  23.1945729
  76.5917492  65.3594351   5.2114433  76.3538647  64.7446060   4.5174485
  77.1065187  64.8379612   5.8273268   4.0668568  79.6765661   8.8400161
   4.8849082  79.2310524   9.0603417   3.6364990  79.8179531   9.6832442
  64.4244432  61.4128733  43.5533047  63.6200666  61.1142540  43.1290007
  64.4837999  62.3412228  43.3277369  48.6948776  68.6787224  21.5082550
  48.9725399  67.7876806  21.2957048  47.7998066  68.5797024  21.8327117
   8.4837455   9.1897798  28.2440567   7.9672378   9.9768889  28.4170055
   8.0727255   8.5111368  28.7795377  74.0506601  69.7397375  34.6593022
  74.3888712  69.2119551  35.3826880  73.9913988  70.6257915  35.0165486
  15.9995067  44.3667984  68.6852741  16.5770149  45.0581694  69.0088844
  15.4912972  44.7850275  67.9902601  63.5434961  68.2097912  30.3220654
  62.9067516  68.3842850  29.6289992  64.3388557  67.9505301  29.8568583
  62.5531578  60.0048208  14.8071158  61.8828964  60.3137255  15.4166710
  62.5047827  59.0503931  14.8614872  72.4952650  66.4699316  32.0408869
  71.9876766  65.9670782  31.4039230  73.3953619  66.4260340  31.7181921
  53.5061359  77.4403286  22.2902155  53.6416149  78.1104088  22.9601932
  54.1862249  76.7890072  22.4619222   4.7103015   7.3182470  30.9287596
   4.0392080   7.3002285  30.2464533   4.2393023   7.5759166  31.7212224
  83.4822369   5.3012365  49.7126675  82.6155663   4.8963538  49.6784258
  83.5269642   5.8386236  48.9218140  83.1210423  13.0248320  53.8141584
  83.1212807  12.5496852  52.9832125  82.4841118  12.5592005  54.3561363
  21.7777205   5.0767297  25.8643723  21.3437867   5.1018584  25.0115514
  21.6888523   5.9669805  26.2046480  53.1587648  75.7001209  27.5496697
  53.8300467  75.5036879  26.8961978  52.3581028  75.8255386  27.0403171
  85.2856064   2.4906304  33.8780594  85.2909851   2.5088796  34.8350692
  85.6389141   1.6299787  33.6529231   5.7794416  80.2989101  23.3132577
   6.5709883  80.7640648  23.0424905   5.0603819  80.8540726  23.0116248
   9.3087053  14.0054691  55.5415106   9.4902724  14.8966300  55.8400059
   9.4532865  14.0355253  54.5957708  52.6441097  66.1678076  31.6449928
  51.7926931  65.9625816  31.2587309  53.2775354  65.9341002  30.9664750
  79.6760321  22.3246598  27.5764465  79.3645525  21.9897509  26.7355871
  80.5752659  22.0036125  27.6438642  43.1115007   1.5271802  17.3163188
  42.4904108   2.2486979  17.2168887  43.3851147   1.5712202  18.2325232
  79.5275068  73.6823177  36.6860533  78.9819717  72.8959084  36.6725421
  78.9026594  74.4067812  36.7167330  45.6509781  77.3621845  27.2594404
  44.9990034  78.0502081  27.3927903  45.9051037  77.0983744  28.1437826
  58.3895254  58.2330370  21.4877176  57.8277016  57.7125692  22.0619106
  57.7878237  58.8249445  21.0362339   9.4834214   2.2109154  18.1700623
   9.5260888   2.3213239  17.2202086   9.5638323   1.2667336  18.3052897
   4.5649126  54.5082855   5.3038263   4.9342418  53.7239647   4.8980328
   4.8151484  54.4416523   6.2253326   6.3004726  69.0812540  29.9118209
   5.8465600  69.2152166  29.0798068   7.0102817  68.4741831  29.7023821
  68.5764933  77.0492649  14.6763361  69.4266129  77.4650955  14.5327580
  68.4840155  77.0157480  15.6284678  16.6644096   0.7750477  31.8197584
  15.9510601   0.7080287  32.4544787  17.4462724   0.5219902  32.3105574
  76.0241747  41.7503738  22.4334383  76.1630106  42.6735163  22.6450062
  75.6819105  41.7583609  21.5395570  19.2195332  14.5371699  60.8039856
  18.7412703  13.7093019  60.7578325  18.6170340  15.1827574  60.4346037
  73.2098341  62.6487589  35.8100438  73.0096483  62.8771830  34.9023128
  73.5017109  61.7380667  35.7690692   5.3553265   3.1116951  13.0987990
   4.7529849   3.6144987  12.5505245   4.8659039   2.9486266  13.9050901
  85.9483147  73.8057804   4.2066601  85.0883675  74.0087032   4.5748237
  86.3711834  74.6580982   4.1018933  74.1593790  73.0326271  19.1146111
  74.6695471  73.6185789  18.5554886  74.5942974  72.1839428  19.0320826
  77.9540253  77.0616817  63.2614374  77.5589657  77.1014071  62.3904705
  78.5716152  76.3320971  63.2112551  17.5976753   4.3796164  16.5512908
  16.9059980   3.9956555  17.0901668  17.3055041   5.2767652  16.3900685
  44.8389721  59.6842337  13.3548999  45.0857735  58.7607241  13.4044659
  44.4188547  59.8653364  14.1956937  75.3225899  48.5907936  12.8938115
  75.4608440  49.5316362  12.7846086  75.1122808  48.2759809  12.0146668
  53.7041187  66.6707850  16.0112906  53.7876844  66.1440229  16.8061316
  53.5887861  66.0295630  15.3100288  34.7798419  10.7975340  31.2476420
  34.2562532  11.5981591  31.2146640  34.6634221  10.3995109  30.3849387
  79.3864679  26.4743805  56.8545675  78.8641262  27.2095466  56.5337515
  80.1786900  26.4910841  56.3175964  65.4014635   8.1326473  41.6860151
  65.5595303   9.0151793  41.3507795  66.1838770   7.6392281  41.4398527
  72.6792240  73.4353638  64.1756058  73.3022308  72.7265596  64.3358755
  72.0535469  73.0677366  63.5514212  41.6380739  10.3258383  53.0525732
  42.0891905   9.8037601  53.7160206  42.1969366  10.2635133  52.2779655
  53.6436653  67.9046297  26.9830513  53.2504702  68.0586720  27.8420615
  52.9225731  68.0232048  26.3648319  81.2691689  62.7048635  15.5378103
  81.8914986  62.6762152  16.2645280  81.0724545  63.6351109  15.4274631
  19.7811961  25.2074909  43.1049538  19.0496755  25.4857659  43.6560202
  20.3440070  25.9795165  43.0461836  77.5376558  74.5588064  21.2043619
  76.7313099  74.1915321  21.5665054  78.0896187  73.7969971  21.0276771
  61.8076181  63.7737274  10.8895659  61.8026638  63.4284115  11.7822933
  60.8832169  63.9039516  10.6780016  83.7634277  77.1249437  33.3285975
  84.3497467  77.3983622  34.0340781  82.9620743  77.6276350  33.4747958
  10.1395261   1.3726121  40.7677126  10.1422405   0.4924162  41.1438513
  10.5072200   1.9279844  41.4551687  62.6636839  49.0672350  32.3927498
  61.9659042  48.9697123  31.7448068  62.9121399  48.1697321  32.6140952
  78.3317041  75.3888559  54.9476719  77.7409077  75.5083799  55.6912470
  79.1854525  75.2176285  55.3452015  65.7937193  71.9302464  22.9960418
  65.1186180  72.2824812  23.5760450  65.5502796  71.0124969  22.8747582
  42.4578285  13.1616998  14.3992269  43.0986881  12.5730169  14.7979534
  42.0614433  12.6446486  13.6979651  11.1126947   3.8664863  33.5401654
  11.0301650   4.8057607  33.7050414  11.1802316   3.7954777  32.5879955
  84.6269512  60.9517860  15.2645791  85.0790787  60.7617712  16.0865939
  84.0764809  61.7091751  15.4635251  57.5034189  34.5253444  63.9308834
  56.5573883  34.5623422  63.7898684  57.6258945  34.8544383  64.8213530
  84.8257923  76.9799805  37.6236343  85.3815365  77.7513838  37.5126100
  83.9918518  77.2259617  37.2232985  39.3217444   7.6239449  36.2669015
  39.0903950   8.2330918  35.5657244  39.5393085   8.1861031  37.0104575
  69.1047096  75.2909517  31.1951804  69.6753693  74.5606089  30.9560466
  68.6104393  75.4798365  30.3975248  24.3461323  77.3922062  36.2616944
  23.8088799  77.7880430  36.9479203  24.5037103  78.1034040  35.6407309
  62.6306057  80.9300041  66.1090899  62.5533247  80.3611946  66.8750668
  61.9802713  80.5921936  65.4933167   6.2407106  22.4440503  34.2495155
   6.7882973  23.1691766  33.9485598   6.3935924  22.4042630  35.1935887
  29.9078345   7.5422120  15.3373253  29.1987324   6.9935715  15.6725860
  30.7027555   7.0371228  15.5082583  31.1549878  24.0371156  14.8221111
  31.7285156  23.2893634  14.9899292  31.7300200  24.6983147  14.4369054
  21.7421770  23.5033369  24.1005874  21.3358068  22.7940249  24.5985556
  22.6828837  23.3523226  24.1927576   1.0374533   5.2461886  39.9890947
   1.8452415   5.5974674  40.3636789   0.6139759   6.0017842  39.5816970
  29.0040326  12.5178611   9.2894047  29.7873759  12.8983915   9.6866477
  29.3366647  11.8204916   8.7243706  83.8157940  80.4629898  46.6543913
  84.3011189  79.8371363  47.1919727  83.5565758  79.9633121  45.8802080
  35.3861022   1.3429196  27.1630025  35.3196454   2.0003843  27.8555012
  34.9156857   0.5838036  27.5075078   1.2881206  69.2950583  21.4044285
   0.5490139  68.6882687  21.4463782   0.9483783  70.1119661  21.7697573
  21.9568324  14.1089642  13.1949914  22.1707010  13.8913119  14.1022515
  21.0018969  14.1736341  13.1829178  12.9142439  67.7722740  12.3741400
  12.9981506  68.4184694  11.6729808  13.6299706  67.9773235  12.9757392
  70.3190422  79.2800903   4.8948926  70.4608774  80.1137447   5.3433734
  70.4200411  78.6193180   5.5800265  30.9383202   1.8464981   7.5778449
  30.5974936   0.9953173   7.8527248  31.7038298   1.6365665   7.0429099
   1.9780460  80.6750011  15.0388455   1.5214816  80.1891041  14.3520498
   1.7825817  80.1939201  15.8429527  15.9724712  74.2333364  34.2294645
  15.0993896  74.5466518  33.9932609  16.5604806  74.9408674  33.9651346
  41.8102264  45.2841902  69.2773676  41.1008263  44.6421766  69.2490101
  42.2384071  45.2058125  68.4248734   7.2579604  18.2747710  34.9996495
   6.4626414  18.6825192  34.6569538   7.4024373  18.7033403  35.8432651
  39.2982936  30.2573442  10.9423089  39.3195057  29.7877073  10.1085079
  40.2182674  30.4266906  11.1452889  82.0417404  58.2802820  38.2625937
  82.7512169  58.8814497  38.0357313  81.2740231  58.8430262  38.3634782
  11.9107401  80.5799961  41.2974167  12.4930227  80.0516319  41.8433094
  11.3354754  81.0237885  41.9205952  50.3915834   3.0444887  15.6381714
  50.3950119   2.2332792  15.1300776  51.3172770   3.2403189  15.7829809
  55.8964729  34.2061329  69.0435505  55.3980970  33.6993194  68.4024620
  56.3643789  33.5480928  69.5576334  11.7476022  70.7180166  37.6621342
  11.1734962  71.4631224  37.4847960  11.4545918  70.0397301  37.0536065
  23.2833481  70.6953859   5.7198548  23.5207868  69.7954178   5.9432489
  23.8741040  70.9281921   5.0035864  58.9514971  12.2997808  12.6430142
  58.1425476  12.5627637  13.0819523  59.6310282  12.4075723  13.3084834
  45.7580042   7.5104749  18.0206323  46.2089300   8.2127827  17.5519526
  45.5228424   6.8804497  17.3394585  42.0560455   4.0963566  17.1157062
  42.4476337   4.7359186  17.7105594  42.6794672   4.0288231  16.3925099
  25.7005978   7.4436665  18.2295084  26.2019825   7.8142905  18.9557886
  26.3564324   7.0142311  17.6802361   4.0557021  25.1677704  34.9798179
   4.3227091  25.8363104  34.3489504   3.9264262  24.3792081  34.4528580
  26.6118026   6.5558219  33.9426017  27.5168920   6.3139260  34.1388917
  26.6634607   7.0179600  33.1059456  46.4438725  45.4771709  57.0808506
  46.0143471  45.0990820  57.8481770  46.9325495  44.7491550  56.6969013
  25.5843949   2.8455785  21.3250160  26.2187433   2.3851807  20.7755923
  24.7789431   2.8509229  20.8078623  38.8457966  19.2267966  33.9900899
  38.9212060  19.0113199  34.9196672  39.5530224  18.7354445  33.5721922
  74.4566154  64.7340584  15.7486105  74.8993158  64.3534231  16.5071356
  75.1330853  65.2507639  15.3108454  42.7133751  14.6173286  27.4825644
  42.1513653  15.3789902  27.3402882  42.2181034  13.8830626  27.1195364
  38.4070373  24.1382933  23.4033918  38.0350947  23.2891703  23.6418915
  38.1328392  24.2736292  22.4963474  72.0986986  49.0175962  64.4208336
  72.7898264  48.6614656  64.9791718  71.8984365  49.8720026  64.8030901
  19.8264098  20.6323338  38.2170367  19.9724686  21.0346198  37.3608446
  20.4223990  21.0967612  38.8046885  39.1459012  19.7190976  26.1368132
  39.7653079  20.1519775  26.7243338  39.5119858  19.8523319  25.2624774
  80.1862431  44.0281057  66.6707850  80.6362724  43.4391308  66.0651350
  80.7628918  44.0737391  67.4334288  25.8635283  36.4862895  18.2828629
  25.0801158  36.2427640  18.7760079  25.5649900  36.5511250  17.3757231
  27.1987820  22.5431752  14.3671238  27.1566153  21.7567635  13.8230550
  26.4353943  23.0574083  14.1043854   8.8523489  68.2602262  31.6224670
   8.2265604  68.8928843  31.9751239   9.5387018  68.2060671  32.2874618
  20.1368833  16.0873437  20.7010031  19.8043919  16.9831717  20.6446648
  19.3516362  15.5442882  20.7696271  16.3596451  76.6060257  18.4157896
  16.1110485  75.6940746  18.5667205  15.9929216  76.8152142  17.5567281
  27.6372027  55.8488464  63.3051777  28.1666875  56.4698267  63.8054419
  28.0868149  55.7744122  62.4634314   2.2644427  80.4750156  18.8333964
   1.4715162  79.9403858  18.7925422   2.9394442  79.9340391  18.4235823
  24.8721194  79.3567848  19.4513714  24.2473054  78.7147951  19.1141999
  25.5674624  78.8301373  19.8455441   4.0472510  33.0033064  30.6105447
   4.1545838  33.5940838  31.3559914   4.1734830  33.5609603  29.8428726
  56.1059427  33.6967921  13.9959228  56.6440582  32.9916024  14.3556070
  55.4321766  33.2474875  13.4856331  31.4182758  18.8885486  25.6070399
  31.8628621  19.1554797  24.8024774  30.5164027  18.7163222  25.3364897
  27.8225064  72.2521734  27.6556993  27.1552825  71.6607332  27.3074985
  28.2255077  71.7629004  28.3729410  41.6098833  15.9328234   5.4161620
  40.8314943  15.8731139   4.8622912  41.9810152  16.7921150   5.2158779
  15.9535503  28.4484529  44.4289780  16.4258683  29.1444826  44.8858070
  15.0677466  28.4831762  44.7900581  29.9847889  20.8012486  20.9256792
  30.0177908  20.0775385  21.5512896  29.0520310  20.9215069  20.7475376
  43.5690784   1.9018692  12.7063346  44.1341543   1.5097819  12.0406103
  43.0495644   1.1706215  13.0404186  46.9463015  10.1075006  17.5560498
  47.3695517   9.8010969  18.3580530  46.7363310  11.0247695  17.7314401
  62.9203749  44.0873575  10.9467590  62.7535295  44.3197966  11.8601966
  63.6571455  44.6415520  10.6893277  19.6003091  80.1862431  20.0710416
  18.7642062  79.8926544  19.7091448  19.8864102  79.4636154  20.6297803
  38.8138461   5.7906431  30.1066589  38.4450030   4.9123859  30.2007389
  39.3478012   5.7424921  29.3136859  42.6811790  16.1880803  17.5331807
  41.7242575  16.2087429  17.5228512  42.9422283  16.8763828  16.9213605
  37.8242016  24.3676233  15.8921874  37.7866006  23.9994264  16.7749381
  38.7593889  24.4256163  15.6964982  23.0944610  20.0643134  27.1192169
  22.1381736  20.0747371  27.1596599  23.3068347  19.2381120  26.6850281
  40.2147770   1.5684533  11.7180479  39.9461746   2.4841493  11.7927825
  40.3405619   1.4316168  10.7790661  33.7691164  13.7916005  53.4386873
  33.7983155  14.5657921  54.0008307  33.6038446  13.0652428  54.0397882
  62.3403502  47.0062208  51.6788054  62.8460550  47.7038097  52.0957708
  62.9842949  46.3236666  51.4899015  85.2667427  73.4063673  12.7731669
  85.0361538  72.6787424  13.3507657  84.4409466  73.8682413  12.6284015
  17.9994822  22.6335382  32.5703979  17.5563908  23.3902931  32.1866989
  18.9200127  22.8921390  32.6149106  28.2127690  11.9238222  15.0383615
  28.5688186  12.5692904  15.6489611  28.9446759  11.3331211  14.8605442
  39.9509740  14.0146124  15.8088601  40.8678484  13.7524164  15.7262337
  39.4633603  13.3265555  15.3560436  20.4110503  29.3863988  36.0208917
  20.5234385  28.5346079  36.4428568  21.0648394  29.9480581  36.4372206
  11.2593031  59.9988222  41.2004852  12.1558058  60.3040028  41.0612679
  11.0452151  60.2820158  42.0894146  57.3032761  61.4322138  68.7360287
  57.4875832  60.8728695  69.4906139  57.6616669  62.2862482  68.9777279
  27.9962540  17.0957994  15.5301356  28.5681581  17.7180219  15.0806963
  27.1278906  17.2598195  15.1623368  33.3919120  13.5225272   1.2906653
  32.6791668  14.1613805   1.3003814  33.6008692  13.4108937   0.3632458
  42.3717356  20.9871531  18.3121681  42.2197390  20.2553463  18.9101565
  42.1140718  21.7620325  18.8115728  34.6186709  20.0915980  23.1097531
  33.7393785  20.4441309  22.9726481  35.2023673  20.7517910  22.7360272
   3.8746062  23.6484790  11.9604373   3.2974225  24.3917036  12.1356761
   4.0041456  23.6641955  11.0121739  47.3500204   5.1742208  23.0478811
  46.4252281   5.0126314  23.2346368  47.7008533   5.5291629  23.8646817
  32.7744174  17.2275722  13.8048422  33.3172631  17.9994428  13.9653623
  32.8312778  17.0871150  12.8597128  37.6837897   6.0276806  21.9068003
  37.8906417   5.5101377  22.6849985  37.8697634   6.9308865  22.1634412
  30.4521704  61.5514135  55.5459452  30.6194735  61.2796783  56.4483833
  29.5287991  61.3450336  55.4009390  27.2305012   0.7602481  17.3439813
  27.5048828   0.4993517  18.2231176  26.3503599   0.3959542  17.2497857
  36.9559216  10.1738560  38.3617568  37.6826286   9.8621237  38.9011550
  36.7098641   9.4165456  37.8305602  38.2074189  74.4358873  46.0518217
  37.9530120  74.3983984  46.9738340  38.5754347  75.3124571  45.9403563
  80.7409477  11.0668504  50.6547117  81.2052822  10.4121912  50.1331282
  81.2061596  11.8852139  50.4812479  43.6980295  23.2676172   7.6003993
  43.1145287  23.4749484   8.3303136  44.5430470  23.0883241   8.0127478
  34.4881630  26.1955380  15.1531529  33.8236690  26.0897136  14.4723570
  35.2178454  26.6288018  14.7103488  44.2694044  18.5903466  24.1118717
  43.4080839  18.8383520  23.7759399  44.8651266  19.2475498  23.7521076
  27.0287871   3.5657713  23.5695004  26.4083743   3.7880158  24.2637086
  26.4847612   3.4478745  22.7908039  41.6122437   0.2178536  38.9758658
  41.1348867   0.0192169  39.7814131  41.1440372   0.9619642  38.5972977
  32.1630490  18.2104666   0.0982816  32.1138585  17.6069051   0.8395774
  32.1348727  17.6448280  -0.6733983  51.4197588  19.9298859  11.5428555
  51.3713551  19.8080134  12.4910307  51.8907261  19.1591382  11.2260413
  32.7287149   9.8519832  19.7807097  31.8396854  10.2066183  19.7712409
  32.7898002   9.3808311  20.6116843  55.5755329  10.4575586  13.2980335
  56.1417484  10.0580692  13.9583671  55.1339531  11.1698973  13.7604344
  37.7570653   1.9505842   7.7534491  36.8208575   2.1497114   7.7435213
  38.0807209   2.3609295   8.5553807  35.1823926   3.9511582  15.2250051
  34.4752121   3.3211392  15.0864220  35.8383083   3.7237647  14.5659935
  24.2869568  26.3430929  16.4574468  23.4256053  26.7564368  16.3986623
  24.2787933  25.8914542  17.3013592  56.8875551  13.5846186  13.8858438
  57.1857119  14.4217753  14.2415178  56.1433935  13.3417499  14.4367254
   6.4764255   7.4183035  10.9606743   5.8119130   8.0113554  11.3113081
   7.0686746   7.9865390  10.4681480  31.4026809  12.7304471  18.0829024
  32.3324752  12.9578483  18.0805528  30.9693122  13.4902072  17.6940739
  76.0556746  65.9082317  67.3771238  75.3775215  66.2726879  66.8083429
  75.6317663  65.8231688  68.2311106  61.4961815  13.4855568  23.5149145
  61.4880657  14.0033102  24.3199611  60.7634115  13.8275981  23.0027699
  46.3217163  11.8343055   6.5682882  46.1756134  12.7716506   6.4407396
  46.1864376  11.6962004   7.5057626  83.8084030  14.5175374  26.8696666
  82.9720688  14.4652224  27.3323154  84.2033291  15.3323042  27.1801782
  44.7624302  72.4705744  69.0465641  45.1697063  71.7747307  69.5624733
  44.6084833  73.1759214  69.6750641  66.3538933  58.9782763  68.9653826
  66.4398289  58.4296322  68.1857443  67.2274208  58.9768028  69.3567657
   7.8419799  78.1666994  66.2176514   8.2623589  78.2490683  65.3616571
   7.6300848  79.0659618  66.4679527  50.9154510  14.8147357  16.4839911
  50.4077530  15.6179070  16.5997183  50.3338814  14.2320418  15.9956467
  77.0189714  62.3207998  68.8926506  77.9514933  62.4127579  68.6972666
  76.8373537  63.0151224  69.5260239  14.0454507  58.1568336  46.0024452
  14.3686485  57.3588657  45.5840874  14.8334467  58.5942745  46.3248396
  33.4378076   0.1791706  46.4766026  33.6298490   1.1110772  46.3721895
  32.6628041   0.1557545  47.0378971  85.0719452  81.0457516  28.9573646
  84.6572781  81.5451241  29.6608639  84.6830082  80.1734829  29.0213943
  18.5528815   2.0733349   6.9673681  18.7883723   1.3655362   6.3675374
  19.0501666   2.8286275   6.6535652  18.4537816  49.4244432  27.0917797
  18.2557535  49.6107149  28.0095601  18.9867949  50.1665211  26.8063784
  34.9691916  33.2076454   2.3971871  35.5705285  32.4774909   2.5438225
  35.5197644  33.9026403   2.0365205   7.5603467   7.1456522  23.4257770
   8.1566113   6.5939915  22.9194450   7.3998791   6.6504943  24.2290831
  45.0635195  18.4232318   0.3347139  45.8931208  18.6210895  -0.0998498
  45.0947475  18.9239788   1.1498882  31.2895656  23.1112432  19.9219489
  30.9294534  22.2413468  20.0946665  30.7898211  23.4326720  19.1715014
  61.5540218  56.2055159  63.9811325  61.1365557  56.3690853  63.1354380
  60.8550692  55.8466244  64.5278406  51.0002422  75.3961086  57.9887962
  50.5878401  76.2556934  58.0740452  51.8842363  75.5847406  57.6738453
  24.0527821  13.2668447  42.0105267  24.1185594  13.9550805  42.6725197
  23.3779883  12.6762307  42.3452806  30.3802395   2.7233806  35.4457974
  29.8528385   2.5459376  34.6669555  30.9754276   1.9762552  35.5073380
  41.7746115  55.4128933  65.1354027  41.1582184  55.5266428  64.4119692
  41.2714148  55.6413364  65.9169674  75.7818127  69.8084116  56.8908119
  75.1324940  69.8332977  56.1879587  75.3751087  69.2752218  57.5738430
  18.7681985  11.2744725  44.6087456  18.7761593  11.7474627  45.4408789
  19.6828163  11.2710261  44.3264437  60.4430723  11.2830222  10.6985438
  59.8388910  11.0250461  10.0023794  59.9533892  11.9223666  11.2159240
  46.9672394  54.4871998  57.8030443  46.0327053  54.3265438  57.6723814
  47.1211767  54.2708158  58.7226725  61.7344570  18.3004773   8.5580260
  61.2635231  18.6892152   9.2951405  62.4552965  18.9068079   8.3877718
  21.9536281  15.8420074   6.5387160  21.2598944  16.4977646   6.4683717
  21.5186095  15.0713062   6.9034213  23.9068818  20.3641129  19.4170332
  23.1599402  19.8684382  19.0814447  24.6184206  19.7252917  19.4600332
  57.7962685  31.6524386  10.6463003  56.9658661  32.0989585  10.4811144
  58.4622717  32.2553539  10.3159010  30.1035881   8.9549756  49.1729355
  29.6132016   8.1388515  49.2713928  30.8997750   8.8194615  49.6866989
  47.8395939  18.0154955  27.1672010  48.1937408  18.7797129  26.7124653
  46.8925190  18.1543541  27.1671438  69.7873831  70.7473421  70.1295996
  70.2036476  69.9434900  70.4406977  69.2953920  70.4776335  69.3540764
  37.4666691  11.8637359  35.6080103  36.9573069  11.6647220  36.3936162
  36.9253397  11.5469158  34.8849463  56.5059566  23.9318180  13.6444879
  57.0236444  24.0656042  14.4384217  56.5544271  22.9896045  13.4828854
  21.2191892  29.2608857   1.8632545  21.4933538  28.7390709   2.6174262
  21.7719412  30.0415635   1.8984780  33.1573105  36.1474514  20.2044415
  33.3838677  35.2403998  20.4097724  32.3325396  36.0851407  19.7226739
  28.7087679  49.2614031  69.5916176  27.9822087  48.8912487  70.0929403
  28.3191466  49.9890614  69.1069126   6.9563842  76.3966703   1.3732617
   6.0464782  76.0998774   1.3879813   7.2213936  76.4022827   2.2930279
  23.1683826  74.6546221  32.8826141  22.8603435  75.5166864  32.6029992
  23.6591339  74.8248196  33.6866236  10.4676414   4.7475514  24.3659854
  11.2826371   5.2113634  24.1739106  10.7478428   3.8739341  24.6389532
  41.2868166  18.2341683  30.1924157  41.6829443  17.8946376  30.9949327
  40.4232216  17.8226924  30.1589251   2.0859538  48.2720184  27.6896811
   2.3272657  47.4789953  27.2110248   2.6492569  48.9536810  27.3232722
  23.8306260  29.0451860  20.9832644  24.6788359  29.3645477  20.6753993
  23.4363294  28.6333585  20.2143955  33.0760384  75.4229593  16.9649446
  32.6587558  76.0881710  16.4175832  32.4199486  75.2138329  17.6298094
  44.4357777  15.8640957  11.7710209  44.5281029  15.3659523  12.5831544
  45.0206184  15.4254079  11.1531615  72.1306419   8.6689717  20.6881881
  71.5067720   8.2908493  20.0684738  72.9226732   8.8158894  20.1711512
  23.0262995   9.2291820  29.8991776  22.3354506   8.7504369  29.4411755
  22.6195836  10.0602007  30.1445794  11.0083914   3.5633823   4.1080382
  10.3725374   3.2139689   4.7324029  10.7360566   3.2053405   3.2631290
  49.3426752  12.4800956   0.5246238  49.2002630  12.6480663  -0.4069003
  48.4637880  12.4725914   0.9037472  48.6872482  14.4794917   9.8108876
  48.6320496  13.5537410  10.0478911  49.0580463  14.4791090   8.9284247
  15.4275155  74.9801540  21.7557979  15.1475632  75.4595709  22.5355530
  14.9558485  75.3982210  21.0353971  76.7730618  63.3414173  59.7176647
  76.4529133  64.2319775  59.8613167  77.1739960  63.0937243  60.5508089
  71.5174961  50.0411463  15.4506302  70.7894516  49.4699621  15.6954253
  72.2526312  49.4447374  15.3088343  33.4092474  72.5949240  13.5603476
  32.7955937  72.5236416  14.2914951  34.2684436  72.6710892  13.9753354
  61.0046577  11.8216777  29.4760895  61.6532087  11.9485664  28.7836194
  60.4705048  12.6156199  29.4523716  76.1356735  60.8018541  62.7182674
  76.0180521  60.4006481  61.8571997  75.2636337  60.7828426  63.1124973
  18.0717993  14.8773348  29.9966145  17.3829269  14.2606485  29.7488570
  18.4267068  14.5247841  30.8126903  39.8949456  20.6172824  13.9488006
  39.9948263  21.0848784  14.7780204  40.1913261  19.7271276  14.1385818
  60.7030773  22.8455281   2.4383542  60.1143265  23.5557604   2.1830668
  61.5630436  23.1217027   2.1214606  46.4419270  27.7234983  11.0407948
  46.0473204  26.9472980  11.4383209  46.9917917  27.3789334  10.3371203
   9.3741310  21.4004803  32.8602004   9.5667398  21.4327836  31.9231367
   8.5266769  21.8372154  32.9457259  31.2810230   2.7103031  42.9717398
  30.8390665   3.3390921  42.4011898  31.2547922   3.1142974  43.8391113
   6.0522908  26.3424850  12.4799597   5.7241160  25.6548190  11.9006085
   5.3000849  26.5768981  13.0235302  80.8900928  75.5148268  18.1977928
  81.8045998  75.2349949  18.1577969  80.9346008  76.4668274  18.2869387
  46.8221045  15.1145780  29.6201158  46.2373734  14.9416530  28.8822699
  46.2364292  15.2245855  30.3691912  42.6758814  28.4741664  11.8243814
  43.2681370  28.0332279  12.4335134  42.2977829  27.7660298  11.3030231
  48.7186146  12.3670089  34.6722817  48.1113482  13.0324662  34.9957395
  48.6075687  11.6295147  35.2722836  45.1674986  18.6463141  20.7345414
  45.9011650  18.0709898  20.5178285  45.4789257  19.1616535  21.4786339
  28.4043431  23.7983871  30.2885199  28.9806128  24.3377113  29.7469735
  27.5241089  24.1227317  30.0982022  62.1834517  27.0448208   4.3619847
  61.4671707  27.5563169   3.9857525  62.9760599  27.5110316   4.0961829
  74.6812725  73.6751032  16.4441037  73.8472939  74.1021347  16.6399574
  74.4499969  72.9564428  15.8556569  28.1664562   6.7191064   2.8397939
  27.9408479   7.2975391   2.1112689  29.1186237   6.6336608   2.7917784
  38.2249880  18.9059269   2.7766785  37.8595924  19.0898228   3.6420688
  38.8686872  19.6002567   2.6360005  63.4425688  66.7408323  66.6535139
  64.2895317  66.3334179  66.4721489  62.8661060  66.0083103  66.8710899
  53.0653334  14.9865425  14.6124482  52.3866653  14.6468949  15.1957870
  52.8381300  14.6362102  13.7511241  26.1474514   8.5197371   9.6656913
  25.3100562   8.7001896  10.0928164  26.3137269   9.2938954   9.1278595
  27.2617602   3.5578597   5.3769737  26.3430309   3.7989390   5.4954976
  27.6424074   3.6270478   6.2525034  40.4767466  28.6356163  17.2042060
  41.1721754  29.1482091  16.7920673  39.6835136  29.1531253  17.0656526
  59.7887421  62.5607491  57.6848888  60.5979013  62.8622150  58.0979395
  59.1128540  63.1460285  58.0267334  39.1051149  19.1514850  21.7246795
  38.3778167  19.0987360  21.1046100  38.7676167  18.7483644  22.5245667
   5.4282761  69.9956036   7.5915903   5.0093293  69.8249197   8.4351438
   5.9562969  70.7799339   7.7407497  55.3749418  30.7254457  12.5198245
  56.1077070  31.1616826  12.0851004  55.7103205  29.8565173  12.7405488
  65.7713604  21.8082166  25.8093953  65.7004786  22.2848034  26.6364837
  64.8654079  21.6278195  25.5585146  40.3446627  15.4928768  19.5247400
  40.5649471  14.7171390  19.0090477  40.1818752  15.1563895  20.4059362
  31.0891771  12.9408646  13.2163012  30.5596399  12.2791517  13.6612248
  30.8784127  13.7587941  13.6666381  56.3340330   4.1159624  30.5907035
  56.9566584   4.0171254  31.3109803  55.5812550   4.5576462  30.9837365
   4.4085231  72.5324726  54.6248388   3.8975930  71.8536520  54.1839457
   5.0122327  72.0493412  55.1890659  20.1355791  20.2760696  11.0940969
  19.8586440  21.1192560  11.4526653  19.7674811  20.2589536  10.2106702
  15.4408205  78.5544014  29.6969891  16.3244379  78.2159853  29.8416471
  14.9017847  77.7727127  29.5760274  37.5881839   8.6888099  27.7237678
  37.3423719   9.5941961  27.9137254  38.5390282   8.6709458  27.8324294
  19.1183329  13.9781284  32.5802636  19.9837816  14.2621005  32.8745270
  18.5244012  14.6634102  32.8866410  27.1745420  34.1369605  15.0409901
  27.0260572  33.3615875  14.4997120  26.7511368  33.9318013  15.8745790
   1.8889907  10.3008378  30.7428241   1.9667959   9.6850115  30.0141716
   2.2618936  11.1163664  30.4080296  70.2884626  21.2290549  33.0171061
  71.0949373  21.7129254  33.1951427  69.6741629  21.5333104  33.6851597
  32.7810240  12.2019219  10.5829465  32.0572996  12.2272873  11.2088954
  33.1247616  11.3111067  10.6502151   8.1393409  72.4446106  30.3538561
   7.9908812  71.8043184  29.6579981   7.2765833  72.5750113  30.7473993
  46.8019056  27.1449876   3.1168219  47.6805973  27.0926094   2.7407944
  46.6039038  26.2488103   3.3886600  39.4735980   1.4327596  27.0250940
  39.4013333   1.1394371  27.9333735  38.5875654   1.3447510  26.6737652
  64.7064781  39.0145493  67.2833014  64.9313211  38.2185626  67.7650499
  64.1353226  39.5010066  67.8777504  57.5412130  57.9228926  62.9675531
  57.8958082  58.2675076  62.1479559  57.9725266  58.4370613  63.6500692
  42.6272154  26.4474988  13.7465715  41.7429352  26.7448330  13.5323966
  42.4937010  25.6782269  14.3003082  61.1832333  67.9052734  68.4284544
  61.2354946  67.6239538  69.3418884  61.9909477  67.5798750  68.0310392
  80.3543758  73.9553213  11.1080313  79.8053646  73.4474611  10.5106270
  80.9113503  73.3036757  11.5339112  60.9741116  23.6081100  22.6447201
  61.7124319  22.9993272  22.6670289  61.3791656  24.4745445  22.6065898
  21.0060811  19.0439725   6.7632502  20.8176923  18.7765861   7.6628309
  20.3807306  18.5519552   6.2311918  40.7058477   6.0957474  22.4533939
  40.1774883   5.5686194  21.8540597  41.1183023   6.7536432  21.8936729
  32.0375657  17.7882743   4.4192854  32.8162861  17.4745154   3.9595217
  31.3203835  17.2664380   4.0593320  55.4673004  70.0873613  51.0015678
  56.1336803  69.9756670  50.3235579  55.2273321  71.0126352  50.9514236
  59.8528481  38.0208850  10.8137298  59.0684271  37.4726033  10.7962465
  60.1967001  37.9755354   9.9215746  72.2051048  26.9298601  40.3259945
  71.8037367  27.7615142  40.0740337  72.8276253  27.1632624  41.0146332
  52.1929264  38.3805943  26.2650180  53.1186056  38.1471968  26.1951852
  51.9598770  38.1681609  27.1687818  41.1232376  19.6248829   2.6277998
  41.1913347  19.2305112   3.4973201  41.8237877  20.2767587   2.6049310
  55.0570107  10.7739687   5.7840198  54.6389818  10.9934378   6.6166776
  55.9951782  10.8382702   5.9627330  68.6740637  20.9533381  20.7885170
  69.3772745  21.0755730  21.4263105  68.0485344  21.6506958  20.9850955
  58.3209133  43.8733244  16.5038693  58.7546682  43.0979395  16.8600655
  57.4606943  43.8806152  16.9236290  42.2227764  29.9226189   7.6138347
  42.6761293  29.1681433   7.9899555  41.8300390  29.5884728   6.8074006
  65.5321693  36.8987060  10.1352131  65.7075977  37.6694298  10.6750655
  65.5731058  37.2222733   9.2352921  58.1552887  29.7015429   2.3626421
  57.3650980  29.9293590   2.8524697  57.8542805  29.5900416   1.4608699
  70.2649975  27.1328211  22.9776645  70.2059507  26.2165093  23.2480717
  71.0937119  27.1892381  22.5019717  65.4407787  47.6323223  22.3855782
  66.1549091  47.3007441  21.8412375  65.8089495  47.6673126  23.2684469
  68.8606310  48.8122177  12.8605533  68.5819435  47.9842281  13.2516992
  68.2360888  48.9642525  12.1512818   4.3926775  69.6234274  62.5095749
   4.7831005  70.4051161  62.1187258   4.4814906  69.7575760  63.4531593
  50.2102375  24.9456286   4.5633569  50.2939463  25.1716399   3.6369967
  50.0408363  25.7807875   4.9992973  30.4980946  31.0290837   7.5580806
  29.9556136  31.1779976   6.7836332  31.1400962  31.7388511   7.5408840
  52.9678249  17.2248733  22.5179625  52.6922941  18.1414616  22.5314116
  52.2145939  16.7433035  22.8599572  29.3992472   1.0573456  57.0386505
  30.0471449   0.9352252  56.3447142  29.1785645   1.9879241  56.9992208
  52.0538616  10.4190934   4.0042394  52.9433393  10.1182795   3.8183117
  51.7781925  10.8621073   3.2017574  53.7053490  46.0350561  11.2679255
  53.8564062  45.1882792  10.8479476  54.4468784  46.1426640  11.8635654
  59.8609734  25.1810837  24.5369768  60.1497507  24.4868445  23.9446306
  59.2599916  25.7094693  24.0117550   9.8089039  33.2165360  13.7551558
  10.1262462  32.9231453  12.9010785   8.9641684  33.6263824  13.5689259
  61.4231586  29.4779968  39.1074753  61.9197035  29.9210048  38.4194255
  60.5194902  29.4832301  38.7918949  65.8021164  34.1909099  10.7107913
  64.8873377  34.0353942  10.9457886  65.8020878  35.0603867  10.3104901
   3.9215869   5.2123833  66.6795397   4.5537418   5.8429670  67.0244694
   3.1132367   5.7148290  66.5778017  17.2354984  79.3873358  37.1234274
  17.5447381  79.7522736  37.9525375  17.9776704  79.4853926  36.5269399
  14.6694636  15.8604753  26.6840172  14.7181416  16.1603594  25.7763124
  13.7606573  15.5814910  26.7956829  35.3761125  15.9663022  27.3478961
  36.2825084  16.0986400  27.0701098  35.0552917  15.2584100  26.7891526
  59.1173935  39.9938512  23.0097938  60.0122452  39.9742103  22.6705551
  58.5887575  39.6035886  22.3137546   8.8867944  66.6472673  23.7616658
   8.9010930  67.1585989  24.5707178   9.3731773  67.1803474  23.1327844
  39.4716859   3.0431411  18.8865185  38.6968493   3.3177078  18.3961391
  40.1115894   2.8116655  18.2133341  61.8219423  36.9544148  13.4788668
  60.8887434  36.9255948  13.6899018  61.8496704  37.1434760  12.5409329
   5.6748086  69.2494154  57.9800415   6.3333970  69.7210693  57.4701023
   5.7720655  69.5892715  58.8695765  58.6847830  34.5930028   9.6541667
  58.3843374  34.4811296   8.7522525  57.9103518  34.8948622  10.1288962
  20.3996420  10.7562006  19.0910470  20.4589987  11.6349792  18.7162697
  20.4700089  10.1694334  18.3380640  52.7111197  41.6921425  10.8675420
  51.8632841  41.9132566  10.4821670  52.4931669  41.2432241  11.6843665
  69.0211630  36.9512296  67.7313995  69.5334864  37.7296448  67.9500914
  68.2492638  37.2917700  67.2792530  28.8386154  17.4071479  18.2680607
  28.5265422  18.3006191  18.4114254  28.5264564  17.1821558  17.3916090
  17.9279029  69.4685698  65.8163452  18.0967224  69.0789557  64.9584818
  18.5198689  69.0065384  66.4099264  59.9400759  34.2203426  13.2453895
  59.8746490  33.9817619  14.1700685  59.7625303  35.1607633  13.2275343
  65.6331444  41.3364267   7.8578627  65.7989311  42.2588539   8.0524826
  65.6941462  41.2780905   6.9043916  51.1082363  31.1018276  23.1055307
  50.3358555  30.5901718  23.3460951  50.8141613  31.6527605  22.3801184
  41.0406590  25.8961153   3.9983773  41.1832523  25.1613092   3.4017545
  41.1280012  25.5154943   4.8722941  55.0417280  23.6978626  10.9110999
  55.2803850  22.8420806  11.2673461  55.7240677  24.2887044  11.2297726
  78.1420040  15.6524968   3.1123504  77.2539902  15.5233896   2.7791986
  78.3525419  14.8316360   3.5574254  63.5266387  46.1745351  69.9108902
  62.7370393  46.7124205  69.8521981  64.1927778  46.7646437  70.2633987
  23.4250736  30.3016973  10.5921733  23.8994861  31.1037564  10.8109522
  23.9131498  29.6067071  11.0337639  78.4119320  19.2217767  34.1906595
  77.9879665  18.3672321  34.1116619  78.8504076  19.3502772  33.3495545
  59.8577547  32.3785377   3.2589948  59.9554539  31.8588257   4.0568569
  60.2814913  33.2122779   3.4628457  70.7527256  23.1456733  38.3646488
  71.5471172  23.3406329  37.8674936  71.0485268  22.5767970  39.0753627
  50.6908369  33.4121776  25.3758311  51.0727835  34.2832494  25.2682018
  51.4082289  32.8100228  25.1783705  28.6408782  17.8485060   6.2764305
  28.3221054  17.1659911   6.8670118  29.2517614  18.3589828   6.8079090
  30.7476687  41.3108063  20.1350236  31.5067053  41.8687391  19.9653065
  30.0186706  41.7622423  19.7095835  48.3442116  31.3749862  20.8796954
  48.3588123  30.8971667  21.7089772  47.5329781  31.0946274  20.4559827
  79.9492502  52.4525833  66.1116838  80.1876354  51.5570068  66.3511467
  80.3036785  52.9919338  66.8185902  55.7534695  41.3203144  17.3545563
  56.1366177  40.4863501  17.0826447  56.0065413  41.4119864  18.2731330
  51.1993361  54.7327662  27.2995782  52.1427774  54.7457933  27.1383953
  51.0667562  53.9877176  27.8857136  26.8263650  10.6042361  12.0350623
  26.3265371   9.8457015  12.3367691  26.2296391  11.0651422  11.4453888
  71.2732363  17.5259614  38.1506157  72.1730566  17.4108660  37.8451538
  71.1391258  16.8127882  38.7748218  48.3381844  33.8371015  21.9183826
  48.3375645  33.0300021  21.4037728  48.9408255  34.4173098  21.4531803
  41.4647675  28.4111023   5.5454659  41.2444735  28.9300179   4.7718838
  41.6939211  27.5490165   5.1982903  81.6776466  23.4092116  20.2268720
  81.1925316  23.0082822  20.9480834  81.3834572  24.3200326  20.2174401
  76.3671637  50.1224661  70.2122593  76.1347914  50.5660200  69.3964767
  76.6705751  49.2575026  69.9365664  26.9603014  24.0873933   0.7930301
  27.5619006  24.8313522   0.8219486  26.2729526  24.3106532   1.4206760
   1.5124327  46.4551115  69.3522930   1.3897583  47.3579311  69.6457291
   2.2834927  46.4899445  68.7861776  77.3430347  39.2012119  21.7658281
  78.0854988  38.8661075  22.2685075  77.2270775  40.0982571  22.0790243
  50.2807474  25.0881863  14.8475540  51.0516071  25.6495833  14.9302697
  49.8851681  25.0945640  15.7191646  41.7081165  21.9511580  24.6693110
  41.0518408  21.8290901  23.9832830  42.5381422  21.7247653  24.2497516
  57.7396584  55.1565313  10.6167781  58.6286831  55.1699877  10.9713030
  57.7595139  55.7865191   9.8963952  50.8159256  54.2009592  60.8324242
  51.1389542  53.9958191  59.9550390  50.6906748  53.3474207  61.2471724
  48.5006857  38.0828071  22.0048475  48.3112812  38.1465316  21.0687399
  47.6396561  38.0509329  22.4217987   5.6001765   3.4589744  19.8351097
   5.8204079   2.8089970  20.5023885   5.8069158   3.0295420  19.0050030
  66.8058348  46.9624233   4.9991822  66.1482811  47.0393610   5.6905127
  67.3754597  46.2497139   5.2886713  30.8261919  15.6998694  18.3656609
  31.4857101  16.1534512  17.8407526  30.0708890  16.2878609  18.3615220
  55.8735180  36.9122839  43.9463043  54.9387407  37.1066213  44.0145302
  55.9782410  36.5443659  43.0688620  14.5002091   3.3050492  59.2927647
  14.1054976   2.7216095  58.6446667  13.7611854   3.7900549  59.6599770
  69.2801762  41.8792868   9.0946501  68.7157774  41.2702942   9.5709026
  70.1406574  41.7760944   9.5010442  43.3995199  31.0691571  13.8959563
  44.2845297  31.3964605  13.7351334  43.4620380  30.1258802  13.7457931
  70.6560659  54.3711376  65.8973074  70.4170752  55.2922726  66.0004139
  70.9734917  54.1079140  66.7611265  11.2221146  10.2567410  66.3881063
  11.8719268  10.9586656  66.3523769  11.7398906   9.4520485  66.4128304
  38.7765074  42.1378899  65.4978895  38.2768631  42.9496479  65.4105234
  39.6898723  42.4071693  65.4004955  45.5499792  37.6348948  14.4861984
  45.4796219  38.5368109  14.1734242  45.6639624  37.1139359  13.6913133
  39.0015316  34.5158482  10.1068377  38.9058828  35.3882575   9.7247601
  38.4649515  33.9507747   9.5509547  76.4280224  50.4685497  63.9527225
  77.3097849  50.1346684  63.7876511  76.5648890  51.3645840  64.2603302
  63.2934046  32.2077394  30.2548146  62.6932049  32.8414989  29.8619485
  63.6727571  31.7429185  29.5089817  60.3144455  31.8775654  27.6333117
  60.0612640  31.0933232  28.1202388  59.4922686  32.2139978  27.2768402
  69.6670723  13.0800843   8.8228911  68.9603519  13.7024283   8.6512405
  70.2604723  13.1802511   8.0785292  58.9203262  47.3059940  12.6448584
  58.9649630  46.4092541  12.9766691  59.5813036  47.7809477  13.1486022
  62.5926638  32.3929501  26.4127660  61.7002726  32.3386550  26.7547035
  62.7949142  33.3285189  26.4186788  71.3101339  33.8886547   0.0815212
  71.0452652  33.1786346   0.6662836  70.4866457  34.2890573  -0.1973655
  59.9868011  45.7379103  14.6714711  59.4785881  44.9493122  14.8613763
  59.7398090  46.3539076  15.3612339  61.9681501  41.2752533  25.6241655
  61.5356159  40.4767036  25.3217387  62.2789764  41.0608816  26.5037489
   7.9231894  38.9867210  45.9364653   7.9239267  38.4840655  46.7510653
   7.0664132  39.4131684  45.9189463  44.9900770  25.6901193   9.0419918
  45.2398348  24.7729683   9.1546255  44.5964003  25.9357023   9.8792148
  37.3231792  24.9242878   8.4942746  36.7736983  24.6183228   9.2158616
  36.8368125  25.6573319   8.1170166  53.5247087  54.5585489  18.8123548
  53.3207130  55.2287149  18.1600547  54.4178009  54.2848349  18.6033082
  76.7025185  52.8353834  51.0935450  77.0635462  53.6437178  51.4575386
  75.7632971  53.0045652  51.0195589  49.2899466  28.1975484  12.0322192
  50.2241230  28.1117034  11.8420076  48.8602352  27.6524496  11.3730955
  47.4068832  26.2865543  14.0539145  46.7022943  25.8665752  14.5472705
  47.9183340  25.5588675  13.7001920  73.3820057  60.5857468  64.0589666
  73.7545538  61.1917591  64.6994209  73.0278301  59.8689508  64.5852709
  52.6720333  26.4035726  15.5204129  53.3764887  25.7918358  15.7343090
  53.0376625  26.9585061  14.8315036  50.5649900  22.5497580   6.5577233
  49.8229885  21.9776154   6.3619596  50.3785419  23.3565521   6.0775673
  49.5670891  32.1805787   5.6740963  49.2974138  33.0531478   5.9606826
  49.9906015  31.7965746   6.4418244  61.3085604  25.2439547  35.1218748
  60.3537846  25.1984477  35.1724768  61.4832020  25.7060814  34.3020153
  48.1710052  36.9337583   0.4229925  47.8520727  36.7423010  -0.4589712
  48.9602470  36.3997698   0.5134557  47.1845484   3.2664305   9.5621973
  47.8537321   2.7197450   9.9739736  46.4612532   3.2726431  10.1891243
  57.1873283  21.0766268   9.1716433  57.7675915  21.8288660   9.2885560
  56.4144421  21.4357710   8.7358731  80.0488281  34.0996265  63.8682365
  79.2167234  34.5530963  63.7332916  80.0993633  33.9685702  64.8150730
  73.0566645  63.7472868  68.3439064  72.2316980  63.7974453  68.8267565
  73.2250357  62.8092909  68.2542086  69.2156839  39.1891503  10.6980693
  68.3402872  39.5657849  10.6083250  69.1175556  38.2828259  10.4062128
  34.3342018   6.5126288  14.1347051  33.5589671   6.1921674  13.6736774
  34.8322344   5.7223964  14.3438196  40.3670168  25.9725738  16.2327242
  40.0680542  25.4216695  16.9561589  40.2124023  26.8679523  16.5337646
  57.1726608  34.1662407  18.5944796  56.2335491  34.1264319  18.7753582
  57.5610924  33.5406494  19.2060280  51.7161083  35.2772808   9.9389213
  51.4808607  35.5083871  10.8375204  52.6642609  35.4026031   9.8997808
  69.2203522  47.8407574  59.8778772  69.7620821  47.0746517  59.6885538
  69.7110939  48.3224821  60.5437136  65.1998138  26.9915700  21.4121270
  64.8649168  27.8387856  21.7058921  66.1270475  27.1491718  21.2342572
  59.6071911  35.8766079  36.9806600  59.4352961  36.6671324  37.4922776
  59.5281744  35.1611018  37.6115632  43.9167547  25.4544663   3.9302474
  43.4047222  25.9297514   4.5845869  44.6450424  25.0772715   4.4237548
  47.3946619  24.8006845   7.4095929  47.3514080  25.4905200   8.0717760
  46.4797735  24.5888090   7.2243351  73.4069490  35.5548811   1.4247666
  73.5018539  35.5218005   0.4728579  72.4674129  35.4511046   1.5755443
  33.2965350   5.5553478  69.4900370  32.8287411   5.3697807  70.3042650
  33.3888340   6.5080190  69.4786167  76.3236761  73.8328505  60.0828743
  76.6060066  73.3774662  59.2896938  76.4251375  73.1848717  60.7800531
  30.2121615  24.1257858  17.4284494  30.6819510  24.3415761  16.6228664
  29.3703270  24.5730662  17.3419237   0.4056772  77.5997925  61.2487936
  -0.1095699  78.2622004  61.7091942   1.2206492  77.5410604  61.7473936
  39.3843937  22.5430369   3.5217384  38.4779763  22.8474116   3.5664260
  39.4911194  22.2400284   2.6200584  50.5275059  36.0173702  22.4418783
  50.2911377  36.9436240  22.3927307  50.2153063  35.6463957  21.6165662
  51.5296125  41.2327003  25.6184888  52.4089909  41.3636065  25.2638245
  51.5499020  40.3506136  25.9896326  57.6305342  57.5648022  12.2008324
  57.6970434  57.2008610  13.0836439  57.4366283  56.8102598  11.6446865
  74.4922256  30.6327510  34.4472647  75.1960945  30.9491134  35.0135827
  74.6761322  29.7001338  34.3348479  43.8261700  39.5737195  11.8415594
  43.2795286  40.3270960  12.0648026  43.2101393  38.9210272  11.5087974
  32.8782129   1.9069557  54.9078894  32.0824313   2.4275583  55.0171423
  32.5844502   0.9998544  54.9921656  62.1598864  39.9064231   5.5967546
  62.3236418  40.0988960   6.5199935  62.8709316  39.3170547   5.3451818
  39.8312354  58.5703945  15.2970350  40.6472540  58.4250593  14.8182559
  40.1113462  58.8148546  16.1790836  61.9850826  48.3315706  19.3815994
  61.9396210  48.3162785  18.4256029  61.0798025  48.4653187  19.6623278
  83.3647346  79.1354084  50.1595974  83.0951214  80.0527382  50.2048254
  83.1174469  78.7709045  51.0094309  74.7834873  27.4314713  16.7531633
  74.4622850  27.7650928  17.5908732  74.7819281  28.1943774  16.1750591
  68.0221462  60.7984114  11.0519803  68.2668829  61.2044954  10.2204561
  68.1553984  61.4871264  11.7032492  62.1483326  26.1003518  22.0063472
  62.8491974  26.4254618  21.4412570  61.8010712  26.8840861  22.4322581
  45.4527712  28.8067245   1.2975629  45.8562469  28.2314467   1.9475588
  46.1144114  29.4772243   1.1275710  29.0337586  68.1919956   0.9548457
  28.4703422  67.4500561   0.7350332  29.9100018  67.8138113   1.0283745
  48.3013630  45.1059008  12.8535795  47.7852917  44.8064232  12.1051049
  49.2044687  45.1079655  12.5363684  67.6544237  15.8075237  35.3760171
  68.4899950  15.3915918  35.5882812  67.7377224  16.6989124  35.7147193
  84.1240406  50.0844526  19.8829460  84.3857098  50.0995779  20.8035612
  83.3094597  50.5864811  19.8571968   2.9345155  75.2491570  67.5221348
   3.8225648  75.1710320  67.8706980   2.6615530  74.3465853  67.3575449
  64.1610479  59.4690990  30.6969166  63.2461643  59.2269897  30.5533671
  64.1240120  60.3763056  30.9999561  44.4321060  53.7018967   1.5754703
  44.9449110  54.4492483   1.8832590  43.5779047  53.8089085   1.9939461
  55.9811735  52.9916334  10.9857333  56.4877272  52.7383995  10.2140427
  56.5905714  53.5077095  11.5134943  51.6034412  58.0388641   3.0204812
  51.2796211  58.5955000   3.7286675  52.4406528  57.7045918   3.3423048
  70.7506132  25.4455948  27.7659845  70.7863045  26.2118578  28.3385229
  71.6365957  25.0843525  27.7937984  70.0334644  21.5743923   1.4812939
  70.8106136  21.1387229   1.8312445  69.8391199  22.2638965   2.1161529
  56.7311287  41.3986635  23.9522767  57.4432230  40.7961845  23.7374067
  57.1009636  41.9790459  24.6175694  53.0894518  43.5978365  17.4088883
  53.7390900  43.5972643  16.7058921  53.0285215  42.6816893  17.6794398
  44.6884203  68.0759335  19.5987451  44.7282839  69.0262985  19.4917417
  44.9911070  67.9227781  20.4938197  59.5339012  22.9274201  20.2894950
  58.6143112  22.7577329  20.4939222  59.9154043  23.2116699  21.1200905
  13.6161649  73.2828045  65.2518082  13.3728945  72.3574352  65.2790642
  14.5726526  73.2780266  65.2152109  74.1073370  55.7202244  12.2492349
  74.3825293  56.6352892  12.3054230  74.4854259  55.3082705  13.0261362
  70.6421280  66.6538191  27.0819354  69.8419237  66.4583635  27.5694871
  70.9325123  67.4981928  27.4268079  72.6994991  41.5054655   5.6128544
  73.5549116  41.3056183   5.9930658  72.7172041  41.0890532   4.7511581
  60.4820871  66.6941547  38.6441803  61.0052204  66.7580795  37.8451347
  60.3687859  65.7536793  38.7816834  62.6497555  36.8350458  31.1855030
  63.0086994  36.3891459  31.9526815  61.7250633  36.9659162  31.3953757
  61.0686111  42.4861288  20.4403710  61.8558264  43.0264950  20.3730440
  61.3105822  41.7846918  21.0450768  50.9074116  32.0460701  20.4744482
  51.1245680  32.0316911  19.5423174  49.9984694  31.7484975  20.5132389
  12.7732015  62.6288843  58.3284664  13.6818278  62.4247837  58.5497570
  12.8010619  62.8731823  57.4033833  72.8556347  57.9983187  34.4258070
  72.8066492  58.3161545  33.5242438  73.1807756  58.7466908  34.9262619
  64.3330908  31.1509204  19.3005168  64.8895216  31.7905259  19.7449517
  64.8935175  30.7776451  18.6202097  18.5248387  63.4990025  68.3923149
  17.9348755  62.7552986  68.2695341  18.6456156  63.8566828  67.5127077
  77.8252554  49.6604490  27.9767823  77.2638941  50.3905582  28.2376361
  77.6660490  49.5593119  27.0383501  61.7998075  30.9489202  32.0407391
  60.8654499  30.9579778  31.8330789  62.2036982  31.4748025  31.3504124
  29.4683528  13.7340403  63.9979410  29.1814494  12.9124892  64.3966579
  30.3939080  13.8034475  64.2319584  56.5737152  60.2547932  20.6401443
  57.2053671  60.8891582  20.3012824  56.0845423  59.9684429  19.8688161
  75.4417992  19.6655476  41.0141611  74.5965910  19.2933559  41.2658119
  75.7947159  20.0291610  41.8262339  54.9929619  35.3285265  26.8513870
  55.7464314  35.7112432  27.3008776  54.7967577  35.9446716  26.1456251
  60.6655836  50.9472179  28.2198739  61.3649559  50.7255316  27.6050854
  60.0448132  51.4595890  27.7018499  49.5289898  49.4839907   0.0839836
  49.3392754  48.7789822   0.7030182  49.8698139  50.1945305   0.6273080
  59.5816088  47.2129631  17.1916509  58.6284447  47.2598791  17.1174049
  59.7378206  46.5266275  17.8403234  64.6168661  20.7773900  20.7470775
  65.0224018  21.1243510  19.9524736  65.3078651  20.2620697  21.1632442
  45.2709341  28.3788395   5.1793242  45.7327032  27.6862526   4.7067553
  45.9143257  29.0827751   5.2614820  82.8455162  10.9024286  32.2698998
  82.1933460  10.2884519  31.9323587  83.1450558  11.3821948  31.4976764
  52.8772068   6.2306219  69.9065161  52.1845293   5.8422875  70.4409599
  53.0712652   5.5656749  69.2458963  75.4095650   6.7233795  43.0415535
  76.0076189   6.1580169  43.5303545  75.6199074   7.6085478  43.3389807
  74.4172430  24.0285230  40.4701805  74.6685553  24.9393916  40.3172398
  75.2475739  23.5682535  40.5923796  64.1249943  62.6686954  26.5623546
  63.4302282  62.3376417  27.1315074  63.8657045  63.5691071  26.3667631
  60.2272797  37.4710822  32.5117278  59.5875311  38.1826425  32.5369143
  59.9767447  36.8979883  33.2363153  75.7847929  56.4770079   5.4708564
  76.3136959  57.2619200   5.6137210  76.0984468  56.1252117   4.6377337
  65.8462524  61.8064928   2.0488033  65.8018446  62.3531818   1.2643367
  65.1232815  62.1134520   2.5959006  54.9142885  34.0068126   4.9742848
  54.6892452  33.5663915   4.1547632  54.1063643  33.9858389   5.4871655
  57.8167248  32.3611522  40.4665852  58.0985498  33.1078696  39.9381709
  56.8887377  32.5239658  40.6355953  45.0977755  29.0287137  13.2224679
  45.5656099  28.5654426  12.5276721  45.2644777  28.5108137  14.0100086
  54.3622732  21.5639901  19.8882079  53.4408760  21.5766907  20.1472235
  54.6346712  20.6553984  20.0166249  68.3629513  43.9511919  12.3799801
  67.6856518  44.5965958  12.5823331  69.1865826  44.4018269  12.5664985
  66.1674452  30.1660585   8.8926685  66.1894131  31.1201406   8.8186747
  66.9798183  29.8749352   8.4785122  69.1729736  23.5120392  16.1598682
  69.1728640  24.4684815  16.1217582  69.7243261  23.3024406  16.9137335
  52.1085119  35.6352162  24.6652341  51.6198540  35.6837177  23.8435960
  52.7781582  36.3145828  24.5861053  19.5665646   7.7456480  65.3640223
  19.2030835   8.2592994  64.6427250  19.6619987   6.8632984  65.0054407
  53.2379723  64.8149347  14.2388928  53.1297493  64.0415525  14.7924256
  54.1520214  64.7814941  13.9567029  37.5532007  63.7241936  18.1245756
  36.6599298  63.7295103  17.7806664  37.4470353  63.8403177  19.0687561
   3.4058613  57.4776173  30.3717566   3.4182802  56.5833092  30.7127666
   2.6442090  57.8818607  30.7873368  62.0171404  38.3107114  44.2747927
  61.3652372  39.0025449  44.3871307  62.2305346  38.3318853  43.3419228
  52.1660376  41.2231159  14.7574532  51.7226267  41.7723322  14.1109383
  52.9756498  40.9508085  14.3254721  53.2923651  31.6572261  26.4991975
  53.6991739  31.2991118  27.2881794  54.0289879  31.9378757  25.9561944
  37.0130396  44.1603851   9.0748531  37.2967339  44.4669628   9.9361080
  37.3851252  44.7933817   8.4607708  67.8829718  43.6282587   7.5950778
  68.0615425  43.7270498   6.6598845  68.5579872  43.0246735   7.9053551
  57.4597073  32.5670385  27.7573609  57.5306845  33.1364775  28.5234761
  56.6270733  32.8116059  27.3534656  52.7038479  34.2441702  27.4622703
  52.7808285  33.3246231  27.2078323  53.5868120  34.5974565  27.3536825
  28.1253171  18.2504737  44.0513992  28.1252241  18.9828360  44.6677399
  29.0437222  18.1473100  43.8021517  77.9227734  39.4630456  17.9959118
  77.1553516  39.3243003  18.5509300  77.6421642  39.1827106  17.1247625
  37.8206444   1.1807399  57.3607111  36.8814230   0.9991967  57.3269939
  38.2307982   0.3163381  57.3892927  24.8228121   4.7112978  68.8914919
  24.4038081   3.9073420  68.5843754  24.0973783   5.2622133  69.1855478
   5.0680012  32.5717640  26.8018198   4.4298786  33.1848931  26.4369869
   5.7033658  33.1275964  27.2530341  11.3737917  63.7652206  60.4428196
  11.9741011  64.2039013  61.0456610  11.9339132  63.4522295  59.7325134
  62.9816355  42.1716115   0.1217801  62.3537888  42.8188935   0.4428203
  62.4987974  41.3451519   0.1297004  73.6981106  42.3451519  14.5364916
  72.7556944  42.2599030  14.3922269  73.9086914  43.2268333  14.2290485
  70.7234478  62.3232412   0.7665797  71.6507769  62.0925903   0.8221768
  70.6393147  62.7767992  -0.0721331  62.0192337  37.0044327  23.4685159
  62.7699041  36.8383121  22.8983164  61.2906122  36.5524292  23.0430388
  51.5822458  45.3498888  18.8836360  52.1500587  44.7290421  18.4271586
  51.5214252  46.0991859  18.2911122  56.8622541  27.3747015   0.5344078
  56.0733557  27.0831871   0.9914538  56.5965939  28.1778455   0.0865052
  52.0410395  59.7605038  15.9020531  52.9123640  59.4868660  15.6154454
  51.9169283  59.3216658  16.7436302  68.7234926  79.3586826   0.7658728
  68.6143017  78.6439371   0.1386148  68.0075026  79.2409468   1.3901561
  24.7716594   0.3670923  22.6555514  25.1527953   1.1723308  22.3054647
  24.5276213   0.5885956  23.5542226  60.3782463  42.3618078  13.4258914
  59.5416403  42.4772072  12.9753387  60.8061743  41.6455889  12.9566956
  39.1280651  26.1670446  67.6909065  38.6629128  26.2438369  68.5239553
  38.6418295  26.7336822  67.0919657  51.8361187  42.0107508  31.6726565
  52.5084400  42.1229267  32.3446941  51.0240364  42.2861814  32.0979619
  70.9912682  64.9169779  30.5484986  70.1432943  64.8097515  30.1176000
  71.3400364  64.0280914  30.6153941  52.8334188  38.0009770  29.2629862
  52.3130322  38.7751937  29.4775057  53.4829235  37.9471755  29.9640393
  63.7223864  51.4185476  16.9476104  63.3738756  51.5536928  17.8288078
  64.3578911  50.7097530  17.0474875  33.8124943  78.4113073  60.7397032
  34.2970538  78.5049677  59.9195433  32.9841185  78.0058479  60.4835176
  57.1089649  29.9359870  36.3493609  57.2681618  29.1682768  35.8002663
  56.4567852  30.4442787  35.8671379  50.4604673  59.0245628  31.1500669
  49.7480202  59.4488525  31.6282177  50.0928211  58.1879616  30.8651638
   8.0762893  27.2978449  68.9119530   7.2938824  27.4035215  69.4531584
   7.7402937  27.2076750  68.0202055  30.2097511  66.5147781  30.1388907
  29.2718267  66.6996336  30.1874328  30.2597308  65.5776453  29.9504185
  48.8767290  66.5561342  10.7807612  47.9581022  66.7818880  10.6345069
  49.3533421  67.3680449  10.6079197  27.3912477  74.8081732  65.0950336
  27.7028465  73.9573336  64.7864723  27.8345275  74.9357986  65.9337521
   0.0182213  32.8300476  13.1913710   0.9015481  32.7358937  13.5478830
  -0.4498155  33.3494473  13.8451266  57.1472359  80.3932762  24.7765827
  56.7889166  80.1480389  23.9235306  57.9118299  79.8280191  24.8866677
  37.3257613  33.2482219   7.5205743  37.7703786  32.5836062   6.9944227
  36.4611030  33.3328199   7.1187782  58.2997847  24.1770649  15.7683682
  58.6710310  23.3670640  16.1180878  57.7773142  24.5313096  16.4879274
  14.4311595  66.0047579  54.0814495  13.7694740  66.6721535  54.2630720
  14.7207904  66.1914206  53.1884193  44.0872955  47.8510904  21.4620233
  44.7484255  48.5334110  21.5785670  44.1705275  47.5911474  20.5445623
  17.5817704  69.0387678  19.3822777  16.7005634  69.2835093  19.0997767
  18.1628072  69.4738150  18.7582898  71.9483042  19.2183197  44.4530392
  72.6223135  19.6498013  44.9781656  72.1375513  18.2841587  44.5411253
  64.6029520  57.2806597  18.3293736  64.7078276  58.0841208  18.8389671
  64.5344925  57.5793982  17.4225652  53.0368662  33.4993124  21.0943580
  53.3643675  33.3282804  21.9773769  52.2298765  32.9879642  21.0349846
  38.9418459  67.4861383  22.3823357  39.5734787  66.7995119  22.5963807
  38.1335568  67.2114468  22.8152847  57.0533657  36.7096591  28.0065441
  57.9050875  36.7738724  28.4386039  57.1804428  37.1406412  27.1613598
  72.8388500  35.8924651  35.0418043  73.5012865  36.0524607  34.3696380
  72.4233961  35.0714612  34.7780180  54.4453239  33.0822206  18.6230946
  53.7035847  32.9533315  18.0319619  54.0471697  33.3420682  19.4538677
  67.0963430  40.0189924  19.4847369  66.6973019  40.7236099  18.9743316
  66.4520359  39.3115067  19.4609535  73.7235546  16.3518667  40.1451874
  74.0399885  16.9778812  40.7965040  74.1039896  16.6521358  39.3197560
  68.2709980  46.5318918   7.9824644  69.0440416  46.7079496   8.5187840
  68.1422138  45.5858850   8.0511612  75.1775455  14.3222344  29.1375995
  75.4303360  13.9808202  28.2798314  74.2633963  14.5852077  29.0308022
   1.9838211  52.7611351   5.7062912   2.7581745  52.2078466   5.6039041
   2.2322910  53.3995247   6.3748324  47.8286076  41.0467482  12.4562109
  47.2276354  40.6862450  11.8042123  47.3433542  41.0016394  13.2800591
  56.1223221  36.3681555   5.5049247  55.5810404  37.1280551   5.2909285
  55.6602097  35.6270027   5.1132917  64.7387457  30.7296348  24.9397135
  65.6657314  30.9665298  24.9112821  64.2915964  31.5406275  25.1817465
  45.8088923  38.0162191   8.7121779  46.1720896  38.1839848   9.5817608
  44.9958944  37.5396752   8.8800341  65.4731226  17.5342131  12.4543107
  65.2682877  17.1793997  13.3194017  65.7257843  18.4421968  12.6215279
  68.0388355  30.0138903  37.0742750  68.4399652  30.0410342  37.9429483
  68.5868168  29.4073105  36.5762687  69.3349123  68.4625006  34.1633177
  70.2187157  68.8171864  34.0667844  69.4080210  67.8279877  34.8762560
  57.4425364  45.2839613  23.7823391  57.8889608  44.9668598  24.5674396
  58.1191349  45.2831268  23.1052566  66.0581112  17.6067495  30.6855869
  65.3835201  18.1066287  31.1452365  66.0242176  17.9301906  29.7853255
  66.0666704  37.1856594   2.4790592  66.6171980  37.9359770   2.2550581
  66.3061094  36.9737768   3.3812827  63.9417553  53.9801979  10.2340662
  64.0283346  54.6463585   9.5521826  63.1766891  54.2535686  10.7402074
  50.8258533  45.0564861  15.2297711  50.6280565  45.4347658  14.3730259
  51.7755651  45.1401854  15.3150642  56.7113161  34.3487000  22.3018527
  57.5328302  34.8219371  22.1699715  56.9733238  33.5227513  22.7085376
  69.8259068  24.1508317  20.2729011  69.4661236  24.9935055  19.9959731
  69.1487694  23.7744141  20.8350682  79.0505886  54.3065977   1.7565437
  79.5159245  53.5292673   2.0654999  78.8278246  54.7854710   2.5548476
  80.4800034  39.0888572  10.7622135  79.8972464  39.4115543  11.4495969
  79.9782419  39.1941118   9.9538887  61.8978691  34.1726613  43.2053566
  62.8155899  34.4279122  43.1111956  61.9132423  33.2156348  43.1956673
  33.6480498   4.1524869  62.0360613  32.9869270   3.5663858  62.4043417
  34.0003157   3.6745235  61.2852669  39.4695354  54.1133928  21.4909410
  38.9235139  53.3389235  21.3556886  38.9870214  54.8235130  21.0676908
  57.3046207  33.8628292  30.4398561  56.6971874  34.5644927  30.6742215
  58.1080008  34.0724945  30.9161401   4.2700508  19.8140299  14.3364191
   3.9998925  20.5261946  13.7567043   4.1881937  20.1784658  15.2177358
  67.2411060  52.1934366  17.5350416  67.9481363  52.2168732  16.8902206
  67.6354170  51.7898417  18.3082592  64.4174242  47.3339748  18.9417326
  63.5782766  47.7724600  18.8010478  65.0087070  48.0326033  19.2219663
  52.8953886  38.4779668  11.6590285  53.5007524  38.8224936  12.3155856
  52.0345831  38.5346150  12.0738018  79.7564268   3.8201332  24.1206455
  80.4748631   3.6012378  23.5272098  79.0508986   3.2223982  23.8733125
  39.9530983  48.4064865  21.2765813  40.7528305  48.2449245  21.7771411
  39.2525554  48.0497551  21.8226743  54.0493679  55.5838346  26.6086459
  54.5524120  54.7841644  26.4546657  54.5200157  56.0311747  27.3119330
  74.3279791  42.9244232  36.1708331  74.9302816  42.5859976  36.8333507
  73.6818075  42.2275972  36.0562754  60.8807039  42.6591635   8.6068350
  61.5663052  42.7079058   9.2730236  60.2814865  41.9856644   8.9286566
  61.0633421  38.8483930  25.1086283  60.1837063  39.1914606  24.9512243
  61.2596846  38.3265710  24.3305635  65.0698423  36.3895011  17.4144197
  65.0667953  37.2884846  17.7431309  64.2070055  36.2774467  17.0154309
  67.2521019  56.3017893  10.0311208  67.4816084  56.8625927  10.7721043
  68.0164289  56.3398743   9.4561577  67.4773026  33.5213566  25.1537585
  67.3045921  32.6171780  25.4161692  66.6563225  33.8176942  24.7608113
  80.4742813  45.1287413  12.5625634  81.0478687  45.3959513  13.2807744
  79.7027302  44.7633457  12.9954875  51.4342451  37.5305724   7.8962576
  50.6083298  37.8002191   8.2979870  51.7154694  36.7743587   8.4113175
  73.8074350  22.7268338  30.8145308  73.5905075  22.2119880  30.0372887
  74.5045233  23.3154655  30.5250335  18.6432803   6.6799742  49.1043711
  17.8293180   7.0979828  49.3853807  18.3641112   5.8552998  48.7066174
  51.2485695  15.1931500  35.2056479  52.1672487  15.0312066  35.4201961
  51.0771704  14.6332932  34.4484067  48.2081079  70.7655287  16.3219476
  47.8542805  71.2652731  15.5862200  49.1551685  70.8917475  16.2638354
  59.9579382  22.1003079  33.9384818  59.2088366  21.9973397  33.3515620
  60.4176283  22.8717136  33.6070490  20.9456778  58.2974005  62.1909666
  21.5108919  58.9991570  61.8680048  21.0170531  57.6089334  61.5297937
  86.0429764   7.7359754  39.8041725  85.1161861   7.9126996  39.6427488
  86.1940098   8.0462807  40.6969976  61.9264412  44.6147346  16.4719105
  61.9624615  45.5482006  16.2631691  61.1807728  44.2856646  15.9699845
  56.0934925  27.1323609  17.0856965  55.4748297  26.5203214  16.6870725
  55.5421829  27.7590299  17.5542831   1.2561260  66.4845467  65.7766390
   0.4590683  66.9461536  65.5161667   1.2493531  66.5160179  66.7332983
  65.9981966  12.1021128  18.6204588  66.4054155  11.2490749  18.4696901
  66.2200785  12.6142371  17.8428161  67.3597288  41.3632202  21.8671918
  67.1377659  42.2941780  21.8503642  67.3065281  41.0877323  20.9520364
  76.6126585  49.8247814  10.4964626  76.7383146  50.7386398  10.7520020
  77.0031881  49.7639894   9.6246684  62.0458460  41.1726761  15.2225983
  62.9363441  41.5235376  15.2106082  61.6082716  41.6047621  14.4890714
  82.2838402  64.7686720  67.4066401  81.9317532  65.2331781  66.6473675
  82.1411610  63.8431311  67.2085238  65.1617432  39.3530416  35.5853963
  64.2254686  39.1562057  35.5557156  65.5802250  38.5049319  35.7330847
  48.9840508  43.9480734  22.4531436  49.7152805  43.8952684  21.8377185
  49.0956879  43.1875515  23.0235648  64.9073792  47.9932785   0.8344124
  65.7314348  47.6155090   1.1417428  64.9500465  47.9177189  -0.1188462
  40.1279449  74.6256447  10.2074516  39.4849038  74.9445057  10.8407426
  40.9714317  74.7362041  10.6462431  84.8754787  66.7904472  64.2002583
  84.3379974  67.1313620  63.4853220  85.3964043  66.0954762  63.7979078
  84.2183113  68.8068628  65.9908485  84.3447018  68.6725330  66.9301081
  84.3243694  67.9360199  65.6079435  77.2523546  41.5673876  12.1989357
  77.0303059  40.9118414  11.5377390  76.8342352  42.3708963  11.8894458
  84.5942974  68.4815168  20.8661938  84.1779709  68.4496641  21.7275262
  84.4991112  69.3923473  20.5876994  71.4011526  46.3088799   1.2100492
  70.7708216  45.7001066   1.5951653  70.9089565  47.1215725   1.0938221
  64.1953373  49.2479753  10.5580139  63.3669329  48.8329268  10.3177774
  64.0906763  50.1620674  10.2939761  52.8895998  49.3596649  18.8589811
  52.6597929  48.7422705  18.1645429  52.9318380  50.2091599  18.4198904
  53.8306475  33.4278011  23.7204576  53.1651688  33.9187455  24.2024827
  54.5850515  34.0160227  23.6872530  70.4110527   6.2303436  32.0712280
  70.4056597   7.1535778  31.8185616  71.1132145   5.8430713  31.5485263
  43.7051678  41.0025215   2.8272757  43.1265354  41.0398102   3.5888714
  43.1597471  40.6391096   2.1296525  61.6507816  40.0709486  21.8968487
  61.8698215  39.4231272  21.2270904  62.4137259  40.0853777  22.4747205
  76.6239500  44.1083002  11.1260307  76.3238049  45.0162077  11.0830641
  77.5555849  44.1535997  10.9110165  71.9555092  40.3412724  30.4863739
  71.0242271  40.1208687  30.5054712  71.9766235  41.2967920  30.5389762
  72.1776152  32.1268892  21.7134213  71.2468767  31.9109416  21.6557860
  72.2174740  33.0655861  21.5304160  78.4753227  44.8516273   6.2319922
  78.3206320  45.7959461   6.2557626  77.6135588  44.4638443   6.3843787
  62.7063227  76.2122488  30.5034518  63.6216640  75.9948063  30.3270888
  62.7476788  76.9942713  31.0538697  68.3104181  52.8011513  27.0908809
  68.3133268  53.7368631  26.8892312  67.4310780  52.6317263  27.4289489
  69.1841602  32.9582071   8.8416100  69.6396160  32.9442501   9.6833903
  69.6828222  32.3559618   8.2894617   1.3160370  66.9892979  68.4745359
   0.7395981  67.4099445  69.1125011   2.0497426  67.5963831  68.3778286
  85.6349564  56.9731665   7.5801980  85.1734638  56.1954165   7.2665828
  86.5617847  56.7667007   7.4593830  84.7109699  59.5249891  12.0837748
  85.3667736  59.4880247  12.7800488  83.8890553  59.2935944  12.5163639
  56.6540384  39.1546369  16.2147129  56.1333799  39.2263770  15.4147136
  57.5351954  39.4203210  15.9516370  48.5768080  31.4814448  28.0392694
  48.3852816  31.2911677  27.1209335  48.3059788  30.6925440  28.5088634
  48.9245415  61.2019157  17.7524006  48.2356930  61.7037773  18.1881225
  49.1725349  61.7388868  16.9998109  68.2810926  57.9159832  17.0972157
  68.4234047  58.2979441  17.9632914  69.0482855  57.3627186  16.9504428
  85.1091671  55.1427364  10.4194212  85.5071640  55.8511353   9.9134582
  85.7644844  54.4450760  10.4112244  69.9823713  53.4886646   3.6169910
  69.2730665  53.9163685   4.0967697  70.1661968  52.6945591   4.1188291
  70.9844494  44.0520048  33.1265116  71.9049740  44.2516661  33.2967997
  70.8345032  43.2169914  33.5697985  64.6952868  41.5939569   4.9286309
  64.8299026  41.5021753   3.9853987  63.9020109  42.1238804   5.0069118
  53.0326509  62.8156137  29.1895247  53.8589096  62.5788879  28.7682390
  52.9134369  62.1545029  29.8713970  57.9286337  60.5478191  25.2000952
  57.1904993  60.5228949  24.5911837  58.5984468  61.0571003  24.7437954
  21.8898296   9.6980619  66.1822319  21.4183640  10.4445052  66.5520668
  22.8142953   9.9160945  66.3007832  61.5825176  12.2414649  60.7020330
  61.1869144  12.9298007  61.2367487  61.2454033  12.3996520  59.8202372
  17.4928665  22.2454500  70.1032305  16.7920280  22.4975109  70.7044983
  17.0870459  22.2743440  69.2367983  76.3389063  69.3821764  16.3416564
  76.7937756  70.2140284  16.2099576  77.0404720  68.7377119  16.4349318
  66.6912460  31.0475445  17.2746027  67.3207474  31.5950084  16.8053019
  66.8144655  30.1722431  16.9073212   5.0084376  40.9718466  14.1652894
   5.9338123  41.2130213  14.1234815   4.6381342  41.5566778  14.8264074
  82.7727509  79.7057104  20.0752568  82.8165436  80.4388142  19.4613588
  82.5295830  80.1063919  20.9098530  68.8201475  41.9255495  31.5172791
  69.0398788  41.6314840  30.6332684  68.3714342  42.7609873  31.3871765
  79.1813946  53.0264330  25.1672769  79.8590279  52.9020929  25.8317971
  79.3127966  53.9219570  24.8558378  74.5372391  75.6930590  10.1556659
  75.4621744  75.4612923  10.0719547  74.4055653  75.8172846  11.0955930
  64.7049856  46.9846487  28.8980412  64.6432829  46.2672663  28.2673407
  64.6252251  46.5601158  29.7522306  69.2542505  69.7865105  18.8423026
  69.9174213  70.4366779  18.6105239  69.7379971  68.9629555  18.9053786
  79.9449587  45.7050991   2.1761255  80.5712318  46.3332891   2.5358424
  79.5425463  45.3010893   2.9449365  84.5797062  76.8676662  24.1244125
  84.4363785  76.6031504  25.0331044  83.7816715  77.3379517  23.8831401
   2.9742378  49.8733997  10.9496152   2.6116997  49.8075342  11.8330514
   2.2108263  49.8315096  10.3736985  64.4472122  50.4960918  23.9848137
  63.8775110  49.8518038  23.5646129  64.6013212  51.1563349  23.3091211
  23.3081460  11.7281961   9.1590053  23.3449459  10.7905507   8.9700669
  23.3100438  12.1462846   8.2979411  38.3251786  15.2222419  68.2213163
  38.6042118  15.4297888  67.3295212  37.3867154  15.0500679  68.1446886
  67.1450138  38.8759422  28.3893228  66.4943361  38.4101272  28.9145494
  66.9455957  38.6285830  27.4863958   1.4388622  65.8360100  27.7165103
   0.5291132  65.9894896  27.9715252   1.8989508  65.6946754  28.5439014
  14.1292799  74.1656971   9.3905705  13.6663818  74.5232677   8.6328769
  14.3580711  74.9328041   9.9153864  85.4973793  42.0016384  20.2052093
  85.9754086  42.4411488  20.9084558  86.0452461  42.1245480  19.4299865
  64.7661686  77.4069166  41.6425467  64.5286226  77.8232384  42.4710894
  65.6887579  77.1743298  41.7472219  64.7041750  63.5462523  11.6075957
  64.2577171  62.7389240  11.8627930  64.0336323  64.0580225  11.1551535
  25.5111814  71.1829376  40.3982019  24.5856380  70.9539318  40.4828215
  25.8089256  70.6966209  39.6293879  50.0600195  42.7657461  27.5578642
  50.6576109  42.4337292  26.8878794  49.8334169  41.9958115  28.0794811
   9.5324844  69.9327040  14.9816823   8.8032651  70.2521706  14.4502592
   9.4119442  70.3548431  15.8322704  74.0646267  45.7835197  28.1215668
  74.7105789  45.9644699  28.8043833  73.2453203  45.6465578  28.5971785
  81.7370510   2.6135176  37.4657393  81.5514183   3.3044308  38.1016707
  80.8771896   2.3583788  37.1314216  55.4087734  60.0153589  23.5212612
  55.2219391  59.2456579  24.0587449  55.9818840  59.6895027  22.8272915
   2.5468871  67.4212122  25.4183578   2.4424841  66.9004679  26.2146974
   3.4577110  67.2821569  25.1589441  66.4563417  54.6371937  29.8412943
  66.1631775  53.8306570  30.2652979  66.2630224  55.3260183  30.4772043
  56.8957806  60.0649405  10.6040096  57.5661421  59.5461369  11.0486317
  56.0667610  59.6857023  10.8957934  82.7269650  55.3266907  32.1108127
  82.1905613  54.7083664  31.6146517  82.8719616  54.8957777  32.9531431
  80.1827240  43.4237003  19.6313226  79.9133968  43.3381939  20.5458641
  81.1259556  43.2612133  19.6432221  58.4058094  56.1777592  24.5363760
  57.8633928  55.6181717  23.9806056  58.4148359  55.7355928  25.3852797
  73.6531401  40.5291796  16.5452015  72.7629471  40.1805401  16.4978898
  73.8544416  40.7945538  15.6478250  17.3406446  58.3306932  36.8063879
  16.4564693  58.5947275  37.0608544  17.9012620  58.6649895  37.5065207
  49.5201921  69.6125746  34.4041038  50.3685427  69.1694117  34.3922758
  49.6832943  70.4295540  34.8754573   0.4785601  40.4815340  23.5370040
   1.3023399  40.7522774  23.1316447   0.6710318  39.6270084  23.9229774
  62.7042150  68.6630774  32.8893661  63.2591248  68.2151413  33.5278535
  62.9829025  68.3136272  32.0429325  32.3317504  18.8840163  66.6608572
  32.7398467  19.4620633  67.3054886  31.7077518  18.3636320  67.1668768
  80.5994415  27.9095125  17.2688985  79.7298622  28.2485199  17.4813533
  80.4363346  27.2143674  16.6314030  74.7083616  51.4242792   8.5065091
  74.6936035  52.0557213   9.2257392  74.5007849  51.9422197   7.7287680
  21.1308432  39.8850441   8.0253887  21.8456173  39.2484117   8.0307525
  21.5273213  40.6930447   8.3512288  26.3767600  25.9510922  67.7045059
  26.0151124  25.1151800  67.4100733  25.7691264  26.2499475  68.3810425
  77.6643419  75.0108385  40.2797985  78.0080366  75.0837803  41.1701822
  77.5214624  74.0727186  40.1543140  53.0106878  51.7748833  14.6531105
  53.6617327  52.0936918  15.2781928  53.4741068  51.7508888  13.8159120
  55.3597069  15.0220990  69.1840363  54.8751593  15.5317938  68.5346889
  54.6817398  14.6102953  69.7197723  74.8359728  65.2463293   9.5024186
  74.4297981  66.0875368   9.7112817  74.2875338  64.8814058   8.8079584
  14.2288935  21.7532754  10.4348040  14.0522182  22.6104474  10.0471497
  14.7488534  21.9458508  11.2150526  69.0001917  42.3447323   0.9425690
  69.6437550  41.6368103   0.9726096  69.1354990  42.7553511   0.0885666
  48.5126925  72.7862549   9.5566338  48.3674240  73.0992031  10.4494905
  49.4372129  72.9670525   9.3869108  33.6822009  12.1587169  43.9143324
  33.6291671  11.6777337  43.0884552  34.1910100  11.5889108  44.4911051
  71.4070845  61.8744183  23.9045238  71.8631411  62.7144575  23.8536954
  70.5449915  62.0466232  23.5258842  67.3844099  46.7412996  20.8287406
  67.7574205  47.3373795  21.4781857  67.9488373  46.8390131  20.0618625
  75.2339888  51.3126040  13.0609107  75.9546089  51.6066217  12.5036979
  74.5194483  51.1285734  12.4511588  52.0922279  67.1831512  20.4159617
  52.5712538  68.0096436  20.4766417  52.4096584  66.6673613  21.1571956
   7.0223629   1.6866904  21.3444853   7.7518499   2.2350904  21.6331697
   7.4209338   1.0517590  20.7493091   8.8787454  46.5030384  11.4503908
   8.5396421  45.7714462  10.9346235   8.0970001  46.9487333  11.7766786
  50.0388193  74.1017532  28.6490488  50.4570484  74.2343760  27.7983236
  50.6836939  74.4132710  29.2841291  74.7283077  52.9383183   5.8789289
  74.2658997  52.8824806   5.0426900  74.3925858  53.7372637   6.2853825
  69.4317484  57.4934483  14.1251516  69.5009756  56.7490864  13.5273528
  69.7859001  57.1693325  14.9532545  11.3662219  78.8096428   9.6147984
  10.9408414  77.9916430   9.3575895  11.0565054  79.4518042   8.9760977
  56.2949848  44.6486425  18.2643902  55.4201555  44.3275404  18.4830308
  56.7435646  44.7144985  19.1074026  43.7162638  17.6149976  15.0214040
  43.2006216  16.9101524  14.6295667  44.6087503  17.2703683  15.0519431
  64.4717360  21.8833041  30.8394003  64.6406698  22.8223705  30.9158564
  65.3370094  21.4785504  30.9002948  10.2701390  56.4897156  43.5989141
  11.1393785  56.4344597  43.2019234  10.1503313  55.6444120  44.0317392
  52.7105618  58.7985229  25.4747176  52.2945499  59.5598507  25.0703049
  52.4074221  58.0549765  24.9536824  68.5346842  48.7656450  48.6341381
  69.2929506  49.3037224  48.8615942  68.7433958  47.8985357  48.9816952
  66.7955971  42.3422956  14.0231955  66.7837954  41.4264441  13.7451494
  67.3964739  42.7700853  13.4131336  77.6683664  76.1118412  19.0560687
  77.8943968  75.5672455  18.3020413  77.7315426  75.5205297  19.8061299
  78.3410692  70.2698183   7.3277730  78.7529612  69.4771671   7.6716983
  77.6223087  70.4486370   7.9341036  66.9725847  68.5405159  26.4713287
  66.3050556  69.2165756  26.5878749  66.9795847  68.0650997  27.3020887
  72.3064137  53.4803200  26.0295701  72.1924353  54.1902018  25.3976631
  73.0667496  52.9947138  25.7097077  82.5305557  61.3607645  33.4192348
  83.2260036  60.8790112  32.9714632  82.1050549  61.8661785  32.7266073
  64.0052319  43.2787180  24.9871755  63.3498812  42.5859928  24.9042153
  63.9377499  43.7714577  24.1693211  80.1382637   7.0052195  30.2001429
  79.3801594   6.4613271  30.4139066  80.8619881   6.3845587  30.1151252
  50.2148485  59.6092272   7.7323031  50.8397436  58.9751339   8.0839717
  50.4657030  59.7086620   6.8139261  73.1411982  41.1660194   2.8103957
  72.2856379  40.9423590   2.4440253  73.3519983  42.0163631   2.4247691
   0.8186342  48.4407616  16.0346651   0.1239024  49.0604067  16.2574196
   1.6229069  48.9582634  16.0742855  62.8662729  65.7842588  22.9647899
  61.9290447  65.5897379  22.9636860  63.0564976  66.0514307  22.0655322
  55.8575201  67.1396303  28.6218333  55.5164766  66.3706589  29.0785694
  55.0798082  67.5764418  28.2745790   3.9758185  66.8667746  34.1339135
   3.9580616  65.9198856  34.2729092   3.1803152  67.1863174  34.5597076
  61.8174028  56.0437679  18.4891641  62.5864363  56.4236355  18.0642915
  61.6224289  55.2601337  17.9752231  64.9156904  52.4386168  22.0102119
  64.8101139  53.2770777  22.4597311  65.8398438  52.4146128  21.7620254
   5.1265228  66.1464691   9.6140766   4.6647698  65.7700300  10.3632832
   5.5580860  65.3997517   9.1988671   1.6023295  60.3215694   6.2646252
   1.6783820  60.1293802   7.1992433   0.7608521  59.9430275   6.0099590
   3.9007005  74.6317387   7.1093613   3.5184950  73.8050652   7.4039066
   4.4195196  74.3952560   6.3405091   3.4937930  74.2850065  30.6660867
   3.9290494  75.0572968  31.0271335   4.1908753  73.6343861  30.5824375
  68.5158110  60.2697945  18.6307096  67.7165508  60.7588387  18.8262880
  69.2242050  60.8905458  18.8012409  17.9145765  65.4053402  28.8354445
  18.7908220  65.0304651  28.7466073  17.3285067  64.6485662  28.8288951
   7.6626354  70.1267529  33.4558582   7.0342410  70.8053398  33.7025857
   8.5083526  70.5750036  33.4477782  64.1013718  63.7455463  21.2274194
  63.6900711  64.3926811  20.6544638  64.2769051  64.2215061  22.0391345
  58.3945084  69.5412159  16.5050662  58.7533760  70.0586176  15.7841372
  59.0376520  68.8460875  16.6443372  47.2674131  66.1661339  15.0307119
  46.3697910  66.3443184  14.7500730  47.4605656  66.8546581  15.6669962
  68.1976938  78.0734158  32.1155405  67.3828268  78.0277491  32.6156735
  68.3881378  77.1642685  31.8844151  79.4335794  80.2841377  10.0876760
  79.5813179  79.4259405   9.6902972  80.0984955  80.3482914  10.7732451
  67.7623415  51.5813017   9.5666373  67.8025818  50.7455778  10.0315821
  66.9601583  51.5279818   9.0471244  18.0177438  56.5941429  25.0619149
  17.2188997  57.0094538  24.7369599  17.8782153  56.5118885  26.0053110
  62.4961758  48.5730982  23.9949083  63.0638981  48.1988859  24.6686220
  62.6046181  47.9931974  23.2411265  72.9544497  75.7874155  17.2330928
  73.5986042  76.2956095  17.7260780  72.3621178  75.4401350  17.9000056
  51.0155630  39.5331955  20.7491708  50.9570646  39.5767522  21.7035890
  51.5562153  38.7622380  20.5772829  62.9924297  70.0558186   2.8269693
  62.4906015  70.4335022   3.5492957  62.4426413  69.3437767   2.4999209
  14.2646480  59.2329502   0.7970773  14.5309210  59.9215555   1.4062998
  14.6876526  59.4672823  -0.0289899  65.6808281  75.0776339   4.0554318
  65.9480333  74.1943121   4.3095484  64.7329664  75.0163603   3.9369515
  76.0350752  68.0694485  28.9810109  76.9407511  67.7613735  28.9481640
  76.0830402  68.9842319  28.7033367  67.0839262  68.3657217  19.1992736
  67.7665472  68.8050365  18.6920607  67.5264835  68.0781698  19.9978256
   3.3419293  56.4672422  10.6564295   2.8928715  57.2971582  10.8171284
   2.8015795  55.8128786  11.0992169  75.4269695  41.4497900  38.0062008
  75.5177689  41.9106817  38.8402081  74.6433020  40.9109163  38.1144214
  10.1986682  75.1196527  44.6492481  11.0494256  75.3887129  44.9957323
  10.2595294  75.2863884  43.7086487  65.2425003  54.7516108  19.3524003
  65.3466320  54.4866133  18.4385276  64.9485540  55.6613779  19.3059647
  62.1714449  46.9115782   3.0628073  62.7820730  46.4318466   2.5031421
  61.3227987  46.5001822   2.8991634  59.8126411  41.5236807  17.8278410
  59.5137882  40.6873989  18.1849837  60.4004860  41.8736506  18.4973097
  65.4705620  63.1408882  35.2259588  65.3160000  62.6244497  36.0169291
  65.7367420  64.0013599  35.5499411  79.9286747  39.2234635  19.8806870
  79.2103672  39.2993641  19.2525911  79.4969702  39.1761637  20.7336950
  42.8207207  50.2911043  22.5510311  42.5818443  49.3747520  22.6905608
  42.8658056  50.3846502  21.5994811  66.8049908  44.1387367  21.6449380
  66.0374737  44.4346428  22.1344185  67.0042801  44.8627520  21.0513711
  63.7142515  53.0363798  27.6650810  64.6356249  52.7902317  27.7470446
  63.2607555  52.2118664  27.4897408  83.6867809  63.6645842  17.2273409
  83.7282276  63.1214571  18.0144417  84.6017456  63.8494730  17.0154679
  67.8795338  51.4059019  68.0973387  68.6484098  51.1601686  68.6118126
  67.1390676  51.2484646  68.6831331   7.8442699  61.8399143  42.4630260
   7.3817265  61.0073280  42.5583410   7.7888387  62.2451448  43.3284426
  57.9054356  59.1537046  30.8101368  57.0609283  58.7794733  31.0611129
  58.1153440  58.7333488  29.9761868   2.6261285   5.8830339   9.7345781
   1.7016560   5.9271580   9.4903749   3.0967516   5.9489298   8.9036733
  19.7881699  36.7814922  65.4936981  19.3298292  36.5571284  66.3035250
  19.1956413  36.4990878  64.7970009  63.7064028  55.7386255  14.1221094
  64.6443081  55.8868074  14.0012491  63.2891798  56.4931297  13.7063169
  45.9010077   7.9825497  65.8045673  45.5388403   7.9482561  66.6899443
  46.6953993   8.5095263  65.8909893   6.2781000  72.6849890   8.1421691
   5.7338589  72.3361206   8.8480902   6.6978288  73.4566832   8.5223693
   3.5408682  78.3441782  16.9681394   3.0976212  77.6706982  16.4522052
   4.4115829  78.4116983  16.5763128  53.2428741  51.3348150  21.6435957
  53.0409479  51.0903215  20.7404470  52.3876333  51.4620733  22.0542049
  75.0017929  54.2688131  14.4816232  74.9835253  53.4648705  13.9624214
  75.7445192  54.1542387  15.0744677  77.3350048  54.1632080  16.1241865
  77.9987717  54.7096729  15.7034516  77.7379322  53.8883686  16.9478011
  11.2213528  43.9197922   6.9332689  10.8466530  43.6577511   6.0923368
  11.1345184  44.8729420   6.9475800  76.6946650  63.5808706   7.4468422
  75.8652496  63.3903837   7.0086384  76.7248583  62.9662609   8.1800389
  76.9724655  50.9376526  24.2933059  77.9118967  50.8733988  24.4652796
  76.7026711  50.0401258  24.0986562  66.7866087  36.1999893   5.1172888
  67.2193193  35.3619695   5.2807391  66.1805582  36.3037157   5.8508933
  65.1479292  27.0324206  32.5641537  65.5564070  26.8092680  33.4005642
  65.3150606  27.9689527  32.4582982  24.8667789  66.8728065  24.9997783
  25.2112842  67.3911285  24.2725301  24.0403843  67.2989130  25.2272415
  56.2894058  51.9321299  25.8093596  56.8165112  51.8583488  26.6049409
  56.8924570  51.7073822  25.1008058  72.4649620  33.0933285  60.5898857
  72.1918821  33.5523963  61.3841867  72.4199677  33.7574053  59.9019814
  15.4320502  65.4218054  21.0690451  14.7432125  66.0650063  20.9016299
  16.2478805  65.9044409  20.9359503  71.7587042  55.2326155  23.9763403
  71.2236452  55.3476429  23.1910300  72.0089865  56.1215878  24.2279649
   2.6906589  71.2059307  14.7932541   2.4425504  70.2868843  14.6931553
   3.3171591  71.2074327  15.5169439  15.9412372   1.8580756  24.7137904
  15.3951705   1.2022697  25.1473355  16.7027593   1.9519022  25.2860761
  66.1150360  56.2661219   4.1543165  66.4990330  57.1345091   4.0331510
  66.5151548  55.7296896   3.4699339  65.0453520  59.0442276  10.9433770
  65.9956837  58.9839649  11.0406888  64.8779583  58.7585115  10.0452805
  67.9271364  50.8763456  24.7368431  67.9444218  51.6789341  25.2581716
  67.0052862  50.6189489  24.7239065  54.8695040  52.5989771  16.7143655
  55.4564619  53.1983757  17.1752667  55.1109838  51.7311335  17.0380390
  10.7346833   0.4080924  14.3340778  11.3473201   0.4616983  15.0675857
  11.2712967   0.1240040  13.5940981   8.3221996   5.4213399  33.6059785
   8.5041469   4.7138232  34.2244840   8.7177408   6.1961567  34.0052772
  62.9673147  38.0936575  36.5494585  63.1358576  38.5546231  37.3712468
  62.0141506  38.0152225  36.5099621  54.8165417  57.4127054  28.9451170
  54.8908043  57.7529669  29.8367119  54.3844080  58.1133080  28.4566021
   8.0252862  63.1829929   9.7169197   8.3807164  63.1716633   8.8282281
   7.9868275  64.1111612   9.9476826  76.2158251  38.6248398  15.8777094
  75.5161095  38.9076352  16.4664888  76.1624670  39.2271090  15.1356459
  74.8796749  19.1463673   9.0891105  74.0282965  18.7579679   9.2904478
  74.9260187  19.1394544   8.1330580  24.2661071  10.1001227  62.3991346
  23.8900280   9.3354470  62.8351021  23.6447334  10.8064008  62.5760460
  62.3163605  35.0496173  25.5479884  61.6918468  35.2710724  26.2387633
  62.3919773  35.8496761  25.0279713  81.9906330  73.5056162  32.4949217
  81.4825916  74.0177298  33.1240988  82.8883553  73.5430622  32.8249502
  57.4405909  71.0328865  28.9959288  57.0366526  70.5929804  28.2479000
  56.7840862  70.9762907  29.6902156   1.4380570  69.1453743  12.6906705
   1.0155138  69.9532604  12.3991001   0.7160982  68.5905600  12.9859483
   0.3596431  34.6714902  19.6605909   1.2845534  34.8328519  19.8469627
   0.1908210  33.8012576  20.0217390  58.1044531  74.4672680  24.5943999
  58.4873629  74.2495632  25.4442334  57.2513199  74.8461914  24.8060942
  46.4228010  19.8385620  63.3743954  46.4465094  19.7246122  64.3244934
  46.2382364  20.7694387  63.2493401  81.7082787  65.6376505   9.6926498
  82.6557636  65.5968094   9.5629197  81.3460827  65.6618786   8.8069510
  81.5592480  67.3813200  21.2008977  81.6265011  66.4574099  20.9598541
  82.1673679  67.8274870  20.6115222   3.1410831   1.0612269  28.6117649
   3.2440400   2.0117885  28.5663271   2.6378551   0.8371293  27.8289676
  77.2811937  58.5526657   6.9786036  78.1278467  58.9633131   6.8031651
  77.2871494  58.3846807   7.9209292   6.9081336  37.5734425  17.9980874
   6.0843062  37.7639532  18.4466922   7.3850083  38.4033060  18.0103588
  71.9888449  50.9090328  18.5655415  72.8949833  51.1628580  18.7408030
  72.0504713  50.2853918  17.8420043  72.1304321  64.7369003   8.6601847
  71.2838507  64.7987890   9.1025662  72.2729540  63.7972689   8.5461408
   7.2594655  75.2556705  16.5753603   7.6262593  75.9930754  17.0631397
   7.4842691  75.4366541  15.6627047   7.0439869  71.7947435  14.1598284
   6.3147473  71.7723513  14.7794580   7.3843420  72.6871824  14.2226434
  84.5888901  70.5156088  25.7937837  84.5786858  70.9061337  26.6676354
  85.5168343  70.4668760  25.5640459  18.4297848  31.5280581  26.2818646
  19.1631901  32.1338034  26.1750054  18.8104069  30.6624889  26.1330366
  70.2531481  66.9690418  18.9567721  70.1256037  66.1832047  19.4882059
  71.1681032  67.2101688  19.1015148  37.1377921  19.8896587  13.4892070
  37.1281815  20.0102520  12.5396824  38.0542755  20.0118852  13.7369013
  76.2669373  80.0881004  23.1657600  76.4685202  79.1661549  23.3258033
  76.2918282  80.4927444  24.0328693  11.2550509  78.4572840  26.2701178
  11.1721015  77.5122738  26.1423993  11.5941429  78.7828159  25.4362845
   0.8017315  12.1222997  37.5081301   0.9658390  11.1983645  37.6969242
  -0.0075667  12.1222425  36.9969845  37.2346711  75.0919533  27.3100519
  37.2007656  75.0902414  28.2666492  37.5869370  75.9529018  27.0844173
   5.1397187  62.1140051  24.2779732   4.4736722  62.6503420  23.8479114
   4.6603519  61.3519335  24.6030712  29.3137121  19.6837759  33.6156011
  30.1230931  19.2020142  33.7860060  29.5511389  20.3199005  32.9409122
  76.3048458  78.4069824  10.8488917  77.1698618  78.2945681  11.2430251
  75.7499981  78.7046432  11.5698469   7.4870157  12.9785895  31.9062948
   6.6032881  13.1734467  32.2182059   7.8518242  13.8319099  31.6717935
  44.4127941  18.5907614  57.1978235  44.5524931  17.6595402  57.3696995
  43.5834312  18.6245513  56.7211151  83.6617470  76.6348362  48.9495707
  84.6087360  76.6772985  48.8167667  83.4247684  77.5069809  49.2649031
   1.1837221  57.8286314  21.1515188   1.7030019  57.9435492  20.3556705
   0.6848174  57.0262480  20.9981990  59.8506832  34.7689867  27.0759559
  59.6649742  35.6533813  27.3915315  59.5163059  34.1939425  27.7642536
  81.6760063  51.3116503  19.8584664  81.1323452  51.3899231  19.0745401
  81.1982822  50.7024431  20.4213929  65.5288124  76.3574171  30.9389496
  65.1268482  77.2249937  30.8946276  66.0609913  76.2991953  30.1454592
  27.7765799   5.7845068  14.0385330  28.1174183   6.4482713  13.4389687
  27.0480680   6.2162489  14.4847405  76.0423803  71.2533426   8.3554953
  75.3832006  71.7441225   8.8462585  75.8756971  71.4777613   7.4400270
  84.4226551  11.7110622  27.7969122  84.3356514  11.9034016  26.8632817
  85.0150967  12.3868120  28.1264710  67.4659872  75.6466675  34.0832090
  66.9380522  75.1290989  33.4752274  67.2527409  75.2928400  34.9466705
   5.6556827  71.9797659  34.1650343   5.1091707  72.3910522  33.4954095
   6.1366808  72.7063847  34.5611358  23.9039469  76.4979029  21.6362619
  24.1435623  76.2211323  22.5206923  23.4839654  77.3494864  21.7573166
  13.6479449  73.6965990  25.0645041  13.3985841  73.0286789  25.7032013
  14.5519710  73.9169979  25.2889872  60.7112026  61.5830946  21.4684844
  61.1086082  61.3237381  20.6371999  61.1111736  61.0030985  22.1164465
  52.1744537  13.5237312  62.6008940  52.3105192  14.2627668  62.0079851
  53.0524635  13.2987905  62.9086828  72.7730083  70.3905153  40.9175301
  73.1365681  71.1335850  41.3990927  73.4930182  70.0885773  40.3637695
  56.3746977  71.1097574  22.1233106  56.9524956  71.0274744  21.3646197
  55.9115982  70.2730036  22.1635509  40.5682039  78.3861637   1.4947690
  40.9667349  79.2345524   1.6887850  39.6506381  78.4892559   1.7471078
  75.4954052  77.2835016  46.5379524  75.0310469  77.7956009  47.2000408
  75.1943493  77.6421785  45.7031155  74.3273020  53.0204582  31.9519114
  74.1104841  53.2984972  31.0620165  73.7348986  52.2888613  32.1252894
   8.8286358  33.9228272  10.1996720   9.4191962  33.3240223  10.6567311
   8.9510173  34.7633100  10.6410825  37.9130292   1.7653893  24.0823007
  38.1254387   1.5315026  23.1787467  37.6557565   0.9382806  24.4896507
  70.2027273  55.4610825  21.8310022  70.0932980  54.6494341  21.3355398
  70.7650757  56.0046148  21.2791228   5.1238054  57.1534204   2.1408895
   4.4727716  57.4992752   1.5303406   4.6086845  56.7058849   2.8121540
  74.6526766  64.3311596  22.7689338  74.4861746  63.9800549  21.8941569
  75.4105473  63.8388491  23.0843568  57.1465445  69.0664482   8.4094030
  56.2166882  69.1887236   8.2179517  57.1615601  68.6686707   9.2799067
   1.6965263  72.5407934  29.5475745   2.2884548  73.2018328  29.9065733
   2.2092699  71.7325163  29.5518446   8.5954875  47.3147058  39.9024153
   8.5999262  47.8395033  39.1019177   7.6744366  47.2794437  40.1605892
  26.0035205  64.2515087  20.6625915  26.1936760  63.6983347  19.9049163
  26.8598676  64.4247770  21.0535932  27.7775192  72.4304342  12.0212662
  28.0017281  71.7180300  12.6199687  28.3758616  73.1392002  12.2576344
  27.2504544  15.0577462   6.9306839  28.1623197  14.7727084   6.8716174
  26.9376111  14.6899724   7.7571839  49.8348761   4.7659937  13.4854662
  49.0718079   5.2574134  13.7895560  49.9826384   4.1083518  14.1651022
  21.2843585  15.2455890  42.6578808  20.5617261  15.3562963  42.0399952
  22.0708537  15.2654958  42.1126652  63.4438419  19.1340435  27.1729922
  63.6738253  18.4422183  26.5527368  63.4906769  19.9408579  26.6600704
  55.9826756  15.9706950   3.1560835  55.9446621  16.5593290   2.4022290
  56.2970972  15.1411486   2.7966082  76.1972618  62.9546356  36.0209751
  76.2459517  62.9385710  36.9768000  75.2944756  62.7056599  35.8229256
  51.7072535  11.7597604   6.5161932  52.5764322  11.5421116   6.8529254
  51.6963768  11.3984287   5.6298786  -0.2603880  52.9729557  62.8771687
   0.2630552  52.6113844  63.5923624   0.0367578  52.4998379  62.0999384
   6.2578058  45.7750082  66.4451933   5.9027553  45.0512171  65.9291506
   5.5059505  46.1143875  66.9307518  27.4674010  65.2769470  22.9080200
  27.6839066  65.9206772  22.2335100  27.7658486  65.6765032  23.7250352
  12.3506582  79.2727041  15.9094000  12.0187342  78.5886097  16.4908433
  13.1905007  79.5259523  16.2924945  71.0634899  46.6883326  56.4834166
  71.2846375  47.5378561  56.8650389  70.6112862  46.9027233  55.6674623
  12.2291613  59.9527264  65.3408623  12.3677325  60.5410099  64.5985985
  12.7983570  59.2040730  65.1626444  69.4901705  53.2139158  63.6607075
  70.1988649  53.2388639  63.0177784  69.8590994  53.6294746  64.4400883
  40.3146601   1.8902573   0.6542974  41.2237120   2.1780597   0.5704848
  39.9770284   2.3787335   1.4050502  18.1426454  76.3827562  40.6330204
  17.6327181  75.8343792  41.2292480  19.0486121  76.1046076  40.7675076
  16.0958827  18.9721453  10.7848024  16.6084170  19.0598869  11.5884459
  15.4461432  19.6730781  10.8373785  18.7912261  79.2244911   6.0356188
  18.8498175  78.5114908   6.6715682  19.6669674  79.2764807   5.6527257
  50.7550001   7.6374352   1.3359909  50.5537701   6.7389327   1.5975869
  50.3823090   8.1786913   2.0319605  61.5469551  24.6639347  19.7036827
  60.7161236  24.1887712  19.6906507  61.5645409  25.0921965  20.5595541
  35.3149605  23.5005069   5.7913315  34.9088573  23.7385583   6.6247851
  34.6385503  23.6748528   5.1368803  21.6129303  11.4680684  27.1284556
  22.5050354  11.7953229  27.0131969  21.0539699  12.1902251  26.8416023
  37.0716095  37.9974031  10.4720855  36.6679025  38.8363290  10.6944728
  36.4044023  37.5382900   9.9619085   7.3941094  64.3729734  27.3158050
   7.0528865  63.5015059  27.5166702   7.0372343  64.5765114  26.4512563
  48.1507063  24.3844080  16.7260015  48.2225990  23.5788202  16.2140524
  48.4845448  24.1487122  17.5915837  62.9309607  33.7364340   8.8026816
  62.3584938  32.9882908   8.9723867  63.2960749  33.9578199   9.6593672
   9.8383623  75.4245853  19.2343771  10.2205610  74.6056032  19.5496988
   9.0962797  75.1506805  18.6953759  72.9990959  68.8899136  69.0559149
  73.2201099  69.1490793  69.9504662  72.6733971  69.6921062  68.6476898
  41.6918898   6.0397226   8.5812086  42.0359278   6.3696098   7.7511227
  41.3673687   6.8189472   9.0325707  29.4409490  78.6104202  14.2743862
  29.4680715  79.0414333  15.1286256  29.4105673  79.3300056  13.6439025
  83.8702393  46.6674662   1.5586179  83.5712242  47.0744658   2.3717429
  83.0692482  46.5209436   1.0554504  54.5008373   6.9450641   2.2509660
  54.1915369   7.8371567   2.4082407  54.1024446   6.4266855   2.9501069
  52.1344757  71.7273712  23.9847755  52.0290565  71.5412521  24.9177694
  51.6861963  72.5631142  23.8551164  27.3762393   6.1912352  26.5563941
  26.4583421   6.4571488  26.5017176  27.8218603   6.7334586  25.9055138
  33.2798338   2.4857323  16.0209274  33.5133100   1.5891910  15.7802343
  33.3844733   2.5133693  16.9719887  20.6101251  71.7574978  18.2695198
  21.0910201  71.9712496  19.0690720  20.7060790  70.8094788  18.1785131
  23.6597657   2.2023825  65.5792046  23.7543750   2.1139358  66.5276051
  22.7908301   2.5857183  65.4599047  14.7112560  70.4111242   5.7733005
  15.0226450  70.4584312   4.8694032  15.4358530  70.0130558   6.2557232
  60.3326797   9.3173617  57.0022964  61.1698961   9.4625193  56.5615797
  59.7021723   9.2115802  56.2899017  81.1120701  49.4344473  53.2089567
  81.5783691  49.9434233  53.8720846  80.1899910  49.6531677  53.3437538
  10.1913881  60.6112623  62.5718069  10.8876252  61.1782026  62.9035664
  10.5396569  59.7245693  62.6651430  72.6198292  19.0047610  16.4998662
  71.9089508  18.9783299  17.1403253  72.6722908  19.9239683  16.2380719
  11.8066108  78.3762550  60.6647778  12.7345598  78.2619429  60.4596567
  11.3821936  77.6027918  60.2934885  44.2281818  22.4039698   4.6731141
  43.5045815  22.8845263   5.0752300  44.9390936  22.4633241   5.3113240
   3.4384674  33.9672899  61.8885422   2.5061274  33.7978148  62.0236397
   3.5049841  34.2201042  60.9677315  60.4622793  42.5862455  51.1193228
  60.6868315  42.2488308  50.2521658  61.2790203  42.5335550  51.6157007
  50.1774788  29.2205429   8.0871010  51.0506725  29.5325184   7.8495389
  49.8264503  29.9034142   8.6586732  80.8131599  74.9967909  56.5013790
  81.6968155  74.6383095  56.5842962  80.6292820  75.3813028  57.3584461
  49.7500992  15.2480459  12.9136550  50.3896427  14.5378304  12.8606677
  49.2298126  15.1619315  12.1148324  19.9958813  17.4721491  50.7864237
  19.0622699  17.2659695  50.8321476  20.0646782  18.3538091  51.1527252
   8.6457747  65.7907772  62.5432205   7.9478639  66.4096546  62.3284149
   8.1921780  64.9618340  62.6959944   7.3797345  41.6022921  69.2233372
   6.4944172  41.5331888  68.8660288   7.7616400  42.3556709  68.7729979
  76.3996172  32.8431368   1.3770045  76.8019295  32.5011754   0.5786081
  75.8044624  32.1494746   1.6613603  50.3376293  31.6621089   0.6449569
  50.0357819  30.8425379   0.2532612  49.6946573  31.8521452   1.3281158
  77.3229790  21.3044357   0.4727301  76.8625641  21.4628935   1.2968299
  77.2524738  22.1315360  -0.0038910  49.8558998  10.4157877  30.1210976
  49.8205090   9.9511248  30.9572005  50.3868866  11.1917162  30.3005934
  46.4099312  44.7303867  11.0178387  45.4946756  44.8548937  11.2689114
  46.4123821  43.9136600  10.5186546  64.9288750   2.5872326  15.1077628
  64.0689611   2.3347723  15.4439795  64.7952938   3.4609222  14.7402668
  69.3194199  11.3000143  29.7082925  69.7121143  10.4732299  29.9883795
  69.8886156  11.9736898  30.0803256  69.5709324  62.3814344  46.1462831
  68.8651514  62.0495272  45.5913544  69.2071390  62.3656845  47.0315170
  84.9319935  58.4138870  57.7544641  85.7095718  57.8709650  57.6246881
  84.7402096  58.7689543  56.8864918  74.5345831  26.7088723   0.8661661
  73.8044214  26.2073946   1.2289508  74.1340780  27.5166464   0.5447204
  78.3751249  64.8800468  66.7983437  77.6277733  65.3226376  67.2006035
  78.8907290  65.5863953  66.4091682  49.6253014   9.9733955  23.7780833
  49.0334082  10.2242219  23.0688739  49.7807264  10.7862246  24.2591071
  31.3756680   3.7471721  60.1734686  31.6849613   4.3091765  59.4630337
  31.9542503   2.9851490  60.1452494  46.5591192  15.1036215   0.4755879
  45.8997202  15.7522821   0.7218909  46.2405300  14.7400236  -0.3505661
  56.1351013  31.9588327  25.1567435  57.0362616  32.1246004  24.8798633
  56.2175798  31.3415384  25.8836389  37.0067334  23.7687230   2.9858327
  36.8624949  24.3415761   3.7390041  36.1530375  23.7190080   2.5557613
  60.1529551   6.0017115  20.3121161  59.5277357   6.3806111  20.9299898
  59.6636343   5.3065068  19.8722470  82.2078514  63.1086159  55.7855844
  82.5426579  62.9315805  56.6646719  82.0287418  62.2428703  55.4186535
  54.1114759  33.4081578   7.8244931  53.5921574  34.1275597   7.4653256
  53.4953213  32.6788378   7.8928858  61.5183878  65.8172560  60.5622911
  60.5983973  65.6186056  60.7366085  61.9834518  65.4950809  61.3344002
   0.5145745  47.3594236  64.9851561   0.1545477  47.0666695  65.8223581
   0.9826382  48.1675339  65.1951790  56.7352915  33.3267832   7.1512669
  55.9670353  33.5431004   7.6796812  56.4915657  33.5777831   6.2602967
   4.2126617  77.8815413  48.6726284   4.7915196  77.1743250  48.3880234
   4.0469256  78.3896351  47.8785181  73.5662508  39.3501973  25.6492472
  73.5345888  40.0916195  26.2538290  73.4034157  39.7359276  24.7884750
  42.1427155  23.5703158   9.6528566  42.5449610  23.5257173  10.5202901
  41.5062046  22.8554368   9.6469659  71.9403553  18.1043625  10.2671111
  72.2226381  17.3973048  10.8472979  71.6924143  18.8149500  10.8585691
  53.7450314  18.5396755   6.5091950  54.1186190  18.4703398   7.3877501
  54.1647673  19.3122149   6.1307287  55.1443005  40.7378626  28.5477829
  55.2487993  41.6781521  28.4023046  54.1980124  40.6092739  28.6128354
  85.4749107  49.4906569  40.8634615  85.7363033  48.6946774  41.3264132
  85.5699348  49.2708635  39.9366975  55.2279663  79.6222687  53.6467075
  54.8935795  79.3755913  54.5090103  55.2499056  80.5790806  53.6630583
  47.4118471  19.7596395  10.2449846  48.0856466  19.2614591   9.7823399
  47.6956892  20.6709194  10.1726460  57.0191336  40.2885389  19.7913063
  57.3119593  41.0882854  20.2282119  57.6985884  39.6443629  19.9903333
  62.8041553  32.5113988   0.7963534  62.7330685  33.1371880   1.5171647
  63.2421827  31.7520499   1.1807357  65.3023624  64.7789240  65.9423685
  66.1362076  64.8391819  65.4762077  65.5260897  64.3787813  66.7826462
  74.6983814  68.6351204  58.9122629  73.8799524  68.8310671  59.3683386
  74.5212650  67.8206253  58.4416723  73.2370329  15.6151247   6.6886121
  73.5388851  15.1715064   7.4812776  72.6694107  16.3165355   7.0080864
  10.1588535  71.5815687  63.9069080  10.1872122  72.4948740  64.1920424
   9.5771968  71.5859413  63.1467152  64.9152946  14.5956016   3.0255839
  65.7589912  14.4105566   3.4380913  64.8099422  13.9021635   2.3742194
  71.0291958   3.2697299   1.7979273  70.6160116   4.0416780   2.1847147
  71.9055700   3.2492054   2.1823484  36.2888050  26.6695881  11.0164440
  37.1405625  26.3637614  11.3282275  35.9445357  27.1959925  11.7379773
  56.6207695  35.4091811  11.8361676  56.8787622  36.2115598  12.2898853
  56.6038227  34.7412920  12.5216377  79.1283655  66.7931890  62.0943737
  78.6394930  66.1781549  62.6411533  79.9975395  66.4009905  62.0110512
  43.0664396  75.2492952  65.6786060  43.0398226  74.4587803  66.2176895
  43.6751509  75.8301020  66.1350775  65.0422859  54.2776728  64.7321844
  64.9614525  55.0109100  65.3421497  65.8734226  53.8635015  64.9643469
  77.4243450   8.9258558  23.6694121  78.0258560   8.6395520  24.3567610
  77.1939278   8.1224436  23.2028604  27.8305745  14.3478501  68.9116812
  26.8965340  14.1394794  68.8921785  28.1169391  14.2494440  68.0036354
  65.1697636  27.8128147   3.7211832  65.2891922  28.1900835   2.8496119
  65.2832460  28.5513401   4.3194562  76.7286803  80.5731554  57.2491169
  76.7094411  81.3157536  57.8527784  77.1339633  80.9207458  56.4546633
   5.4470873  64.4099283  65.1737595   5.4149961  65.3377819  65.4067707
   4.5706612  64.2160130  64.8413372  56.1563444  13.0751777  19.8004663
  56.3249636  12.7991283  20.7013512  55.2287626  13.3112991  19.7919500
  71.7565107  24.4980645  14.7754073  70.8186483  24.3326044  14.8717153
  72.1077108  24.4086409  15.6613493  52.1633959   1.2842388  68.4062815
  53.0287790   0.9695651  68.1448841  51.7290974   0.5139887  68.7727928
  56.8710899  39.4087672   9.9887544  56.8901300  38.5190225   9.6363020
  55.9726143  39.7049522   9.8429817  12.7413607  70.4480362  44.1083288
  13.1096566  69.6186066  44.4126844  11.8904352  70.2112389  43.7394285
  52.1914959  22.6584482  16.4573109  51.9463730  23.0372834  17.3014855
  51.9128084  23.3090186  15.8128560  73.1910849  53.1943607  66.9960356
  73.4493637  54.0309334  67.3829079  73.1206179  52.5975370  67.7410603
  78.1658602  35.1440501  12.4822843  77.3560953  35.6539011  12.4585891
  78.1685972  34.6603489  11.6562963  50.2826118  19.0597034  21.2456942
  50.9023857  19.6570146  21.6644192  49.4899130  19.1250789  21.7782235
  77.2662926  19.3541574  10.3921854  77.1086121  19.9012220  11.1616588
  76.4169168  19.3075836   9.9532986  67.3978233  29.9621010  19.6122670
  66.8762159  30.3145671  20.3333259  67.1139669  30.4599857  18.8456059
  41.8530607  35.1256061   7.6686829  42.2593880  34.2827439   7.4669069
  40.9526825  35.0384855   7.3556942   3.8863727  39.2581153  53.5125208
   4.3614206  39.8230696  52.9031038   3.0575272  39.0729570  53.0709743
  37.6306915   8.9603865   6.2478614  37.6787829   9.8962218   6.0525894
  36.6974902   8.7900424   6.3757253  84.8523140  57.3201895  64.6322823
  83.9148331  57.4955034  64.7136545  85.2049351  58.0983829  64.2006540
  52.3738861  30.3010654  13.7915659  52.2927284  31.2113237  13.5068309
  52.8526402  29.8703647  13.0833828  27.5197625  71.7100191  65.2487230
  27.1827078  70.8185482  65.3375959  27.3577976  71.9371462  64.3330717
   1.0680497  44.3840551  65.5746174   1.5362036  44.7312641  66.3338995
   0.9072214  45.1489353  65.0220633   0.3616746  55.1627541  67.2322226
  -0.2094134  54.6055460  67.7610064   0.5790728  55.8967352  67.8068829
  50.1590681  74.2117310  25.7844162  49.9395180  74.8058605  25.0667524
  49.4629335  73.5548496  25.7730269  16.2981713  78.3185005  51.3358688
  16.0373259  77.4987364  51.7556095  16.5313518  78.0664730  50.4423666
  74.7063971  31.3331032   3.2100579  75.5121756  31.1218905   3.6815861
  74.6183395  30.6346607   2.5614786  76.2804794  11.3070095  30.9715438
  76.3400173  10.8026171  31.7828846  75.9222746  12.1527588  31.2410426
  36.3220072   8.6616576  15.7605827  36.7286229   7.8544706  16.0757732
  35.3813004   8.4988004  15.8297157  70.6658125  66.0361433  54.4806337
  71.3679552  66.1355400  53.8377142  69.9349880  66.5355253  54.1162920
  45.5425310  19.2641830   6.6690922  46.0239840  18.4469509   6.7978072
  44.8177576  19.0266407   6.0907221  69.7502041   9.4515526  19.0089166
  70.0834846   9.9578279  19.7497535  70.0944424   9.9012864  18.2372499
  18.2345510  74.4230509  15.0676906  18.4971416  74.0021944  15.8863223
  17.6350486  73.7987280  14.6589744  13.5987079  18.5041189  21.9180775
  14.0775537  18.9842367  21.2424850  13.1787312  19.1850233  22.4436450
  59.8834038  37.7433324  54.6642351  59.8736382  38.6878514  54.5092535
  60.3969765  37.6373148  55.4650116  46.4071321   3.4793162  66.6639328
  47.0714808   4.0938404  66.9757509  45.7476950   4.0319830  66.2444878
  46.7895126  31.0952926   8.5048902  45.9510660  30.9391761   8.9394838
  47.4453878  30.8018494   9.1373062  81.9366074  60.4801702  54.7182274
  81.0285282  60.7737398  54.6443939  81.8767452  59.6170902  55.1277924
  70.0651789   3.6042461  19.2153621  69.6918726   3.8185805  20.0703096
  70.0202847   4.4234189  18.7222373  70.1266003  40.3410149   7.0591009
  69.5501423  40.9762526   7.4838340  70.9284544  40.8304787   6.8755728
  20.7738328  61.9114923  58.1569958  20.7018232  61.2168121  57.5024176
  21.5039682  62.4512768  57.8540611  35.6535435  24.1050053  10.5525029
  36.0047340  23.5860372  11.2760842  35.6430626  25.0026917  10.8845890
  72.7644062  58.4497499  56.2877846  72.6923275  58.4815979  57.2417355
  73.7044191  58.3810663  56.1207771  77.9647112  63.7266827  34.0771866
  77.2785568  63.6067963  34.7337317  78.6016464  63.0380821  34.2679143
  22.2842050  76.1904860  68.8693333  22.2336221  76.7614841  69.6359062
  21.5085483  76.4120245  68.3540583   2.8404379  55.7612085  62.0212555
   3.3443460  54.9506378  62.0939445   2.4425147  55.8740759  62.8844786
  66.9170284  25.0105643   8.8728791  67.4912119  25.6687903   9.2643976
  67.0920229  24.2127466   9.3719745  35.0040221  31.8604088   9.8618513
  34.5595050  32.6894975  10.0386155  34.6657634  31.2607503  10.5268490
  82.7488899  48.7724495  56.6424417  83.2809067  47.9957390  56.4695168
  83.0179501  49.4010496  55.9725904  36.4862891  -0.2436098  67.3830843
  37.1767278   0.1854674  67.8884745  36.4469816   0.2501170  66.5639877
  60.6950188  23.0443406   5.3844684  59.9145222  22.5713181   5.6730998
  60.7171965  22.9139543   4.4364494  41.0146427  18.4495354  19.7031558
  41.1416769  17.5086665  19.8250592  40.1509905  18.6249983  20.0767279
   3.5255331  49.2152071  43.9615345   2.9118380  49.9087286  44.2036819
   4.3112758  49.4003391  44.4758940  44.6745539  43.2355976   4.7690946
  44.0238094  43.8714695   4.4717163  44.6629000  42.5505257   4.1006821
   8.0160296  80.4663563  61.6940117   7.9213846  80.1990032  60.7797909
   8.1783211  79.6499920  62.1667099  55.8638048  18.6554980  12.0605505
  55.8159304  18.0614841  11.3114917  55.5139780  18.1470239  12.7921987
  14.7913420  80.2194977   2.1298981  15.5558693  80.0834942   2.6895705
  14.6625304  81.1679840   2.1267147  54.0907192  14.6796119   4.8182490
  54.5832729  15.0035655   4.0641430  53.2000208  15.0011539   4.6786222
  51.6559219  32.1330976  17.8486192  50.9480619  32.6466346  17.4594545
  51.8313599  31.4433908  17.2084951  57.6691389  50.5818653  66.8515301
  57.5990772  50.4721832  65.9032202  56.7688751  50.5083132  67.1683073
  81.8678856  17.3233461   6.2862718  81.8954277  17.8400958   7.0915318
  82.7724648  17.3191655   5.9733099  58.0595207   9.8935848  34.2082524
  58.5533953  10.7129741  34.2386246  58.4238291   9.4219756  33.4591889
  50.6560659  23.4712195   0.4309621  50.5200338  22.8482342   1.1448353
  49.9882126  24.1429496   0.5687597  -0.0422591  80.7304478  22.2457385
   0.0390872  80.6416321  23.1953311   0.5535045  80.0702763  21.8915296
  84.8029041  50.5833244  66.5685034  84.0423298  51.1322641  66.3776541
  84.4401836  49.7062302  66.6924953  42.8534603  70.2695513   0.5894414
  42.5344563  70.9454727   1.1874358  43.8015079  70.3993511   0.5650786
  67.5305605  18.1775391   4.4321722  67.8340960  17.2766578   4.3203151
  67.7601194  18.6114025   3.6104077   9.6379089  52.4044418  61.8360853
   9.0274107  52.4423742  61.0998201  10.0100446  51.5235710  61.7935133
  47.8210735  20.0350118  18.7871099  48.7516356  20.0657773  18.5649812
  47.8008461  19.7203922  19.6908998  60.6490707  31.8223095  12.2268069
  60.0817204  32.5583386  12.4561739  60.5743361  31.2220430  12.9686475
  27.5382996  33.2592320   7.4114907  28.0068159  32.9418325   8.1834888
  27.8140950  32.6735997   6.7063653  54.7341537  24.7092533  16.5109897
  54.1390753  24.1204715  16.9751561  55.5249166  24.7244668  17.0501530
  37.1521640  27.4074769   1.7907667  36.4045978  26.8179560   1.6915578
  37.5017762  27.2069216   2.6589718  25.3663707   1.2733209  27.5769973
  25.9121132   1.1928856  28.3592558  25.4945779   2.1765941  27.2873569
  53.6839485  27.6659036   7.1916682  54.3738317  27.4969554   6.5499920
  54.1412163  28.0511880   7.9391277  45.8509064  79.9886036  19.7173357
  46.0073948  79.1072559  20.0564027  45.9088278  80.5550289  20.4867768
  64.1115093   1.7935294   7.3357970  64.9734211   1.3931100   7.4498099
  63.8331747   1.5182476   6.4623088  85.1737976  71.9622898  55.2182007
  84.7201347  71.4085388  54.5827675  85.7286549  71.3570976  55.7102489
  21.3272333   7.2959220  28.5873365  21.2917137   6.3641483  28.8035989
  21.9390321   7.3482192  27.8530335  51.9879961   6.2747681  11.5310538
  51.4852381   5.6968009  12.1050060  51.3255072   6.7836249  11.0637152
  68.6712646  38.1149530  18.5711205  68.1794596  37.9963136  17.7585423
  68.3499289  38.9434958  18.9267766  30.3851032  73.2589626  12.8847444
  30.1356196  73.3913803  13.7993240  30.9490967  74.0047503  12.6799417
   3.4713069  69.3958378  68.7362528   3.0393440  70.2365112  68.8876009
   4.4044879  69.6073198  68.7101650  85.1592636  67.6931477  58.2958746
  85.3468227  68.1354380  59.1237831  84.2405796  67.4335814  58.3657503
  73.9498663  45.1663876   4.0069404  74.6499348  44.9533510   4.6239930
  73.9135504  44.4136810   3.4167317  71.8968773   0.9261553  10.5595732
  72.4697781   0.9275047   9.7927541  71.0160828   0.8195546  10.2003086
  68.0642843  41.7113972  25.5825925  68.7452650  42.1991205  25.1193142
  68.5033512  41.3670492  26.3603330  21.9561768  10.0709331  21.3988113
  22.2734737   9.1927016  21.1884212  21.5302992  10.3705275  20.5956292
  13.6917412  60.3434181  67.7410889  12.9163623  59.9351978  67.3558903
  14.2125559  59.6090460  68.0661678  75.5843067  41.4178944   6.4114833
  75.5454922  40.4671478   6.3075310  76.4513588  41.5831423   6.7818207
  43.4394455  51.7223263   5.4458064  43.7581110  52.2571945   6.1728561
  42.6823854  51.2584972   5.8035183  64.4261837  51.5109491   8.8789803
  65.0571918  51.8317509   8.2346618  64.3129492  52.2411299   9.4874603
  72.4009323  54.4166946   7.6024264  71.9937897  54.7856331   6.8186218
  73.1119585  55.0226974   7.8108311  63.3623886  31.4357615  12.1670246
  62.4551010  31.6480923  11.9479835  63.6060143  30.7526326  11.5423536
   7.2315246  46.2816668  46.1294842   6.9293392  46.2746572  45.2212620
   7.1147645  45.3796434  46.4277220  69.0638304  37.0157266  35.8268595
  68.2713556  36.6056848  36.1733818  69.4044161  37.5332379  36.5565252
   8.9187074  71.5988731  36.4089322   8.9567369  71.7225790  35.4605222
   9.3055260  70.7353401  36.5535426  64.5222139  17.2117054  51.8318415
  64.8892927  16.4061511  51.4677477  65.2707911  17.6590538  52.2264814
  55.7499981  37.9366207  30.1743603  56.0670185  37.4821830  29.3938375
  56.0342503  37.3861575  30.9040332   4.5276862  57.1883869  68.0339193
   4.5190251  56.8769312  67.1288538   5.3864968  57.5980663  68.1380272
  53.5362148  45.7514286  14.8920894  54.1002035  46.2084293  14.2681491
  54.1313696  45.1836538  15.3816378  71.1742115  53.3601999  17.6084518
  71.4862156  52.5353670  17.9806542  71.5038538  53.3573341  16.7098093
   1.5298246  47.0101118  13.5318244   1.6663828  47.4113321  14.3900824
   2.0397362  46.2005997  13.5619998   9.6592760  67.1141100  68.1740522
  10.6045783  66.9641972  68.1613064   9.5644093  68.0202627  68.4675121
   0.3832618  60.8533621  67.7453184   0.0006121  61.6279650  67.3332453
   1.2553024  61.1351776  68.0216455  69.4368219  31.8549132  13.0689585
  69.1665030  31.2205577  13.7328506  68.6685562  32.4117899  12.9429126
  69.6667147  46.3891554  24.3500113  69.4654369  46.2414551  25.2740812
  69.3516731  45.6011152  23.9073277  15.4575384  68.1200123  66.2870836
  15.6667435  67.3717690  66.8461895  16.1992300  68.1841993  65.6854105
  12.6084793   9.3313545  62.4638987  13.2623982   9.4085819  63.1586361
  12.8024268   8.4930527  62.0445347  83.7500477  43.5933781  22.5179076
  84.6831703  43.5799646  22.7308297  83.6365318  44.3826485  21.9883895
   6.9927502  52.3405933  65.3246307   6.3610053  52.0147896  65.9657097
   7.1490282  51.5966511  64.7429419   3.3714536  15.2710152  19.5135975
   3.7289065  15.2950621  18.6259699   2.9548782  16.1252844  19.6272683
  83.2209969  17.4630845  25.1710200  83.6955261  17.0080304  25.8667064
  83.2640934  18.3872461  25.4165769  81.3413525  45.4801273   8.9062911
  80.5522633  44.9480581   9.0086275  81.1497307  46.0522699   8.1632143
   2.4279372  32.5317311  55.4579115   3.3315343  32.2159958  55.4504251
   2.4946599  33.4546137  55.2128220  74.7885752  55.7641125   7.7571952
  74.9199772  56.5977955   8.2087880  75.3492594  55.8198977   6.9834018
  72.2640276  36.8555117   4.5575842  72.3262978  35.9272051   4.7825336
  71.6326094  37.2115970   5.1826793  71.9751263  25.7305217   8.5243005
  72.3638773  26.5622902   8.2536244  71.3157511  25.5454493   7.8555661
  30.0565434  11.2798607  40.2360630  30.5207491  10.5466187  40.6399202
  29.7983694  11.8345392  40.9722090  78.3736658  27.1395278  15.2825892
  78.8298512  27.7237511  14.6769416  78.2217407  27.6738477  16.0621119
  26.9032216   1.7816257  64.7730923  26.2991500   1.2520379  65.2935410
  27.7490258   1.3438036  64.8687840  67.1505308  10.6276834   7.1516865
  67.3206234   9.6883589   7.2221988  67.9886341  11.0032642   6.8819547
  73.3331394  39.2006755  40.5633593  73.3247423  40.0155401  41.0655117
  72.4716806  38.8139153  40.7200003  49.9857140  48.2739258  15.3218806
  49.1953182  48.1472349  14.7970426  50.6808186  48.4122229  14.6785021
  46.4228296  33.7381339  13.6212015  46.1842203  32.9955077  13.0664003
  45.5876541  34.1508007  13.8412476  60.8836222  29.1127992   8.7403095
  61.5639114  28.7234712   8.1908858  60.2197599  28.4279466   8.8208967
  28.7120152  23.1256700  66.1823702  29.3172026  22.6770926  65.5918121
  28.7505531  22.6199913  66.9941759  51.5617323  42.1339989  20.1339126
  51.6789341  41.2086201  20.3487921  51.1790371  42.1295452  19.2565548
   9.9980104  70.0231028  53.7176275   9.5994550  70.8623362  53.9480114
  10.2208328  70.1101780  52.7908039  17.5306165  10.2928972  58.6086273
  17.3204696  11.2036312  58.8151073  17.6155841  10.2768993  57.6553392
   8.0173665  53.8976574  15.9734225   7.0619798  53.8431501  15.9511292
   8.2087290  54.4352055  16.7419624  65.2971554  26.1463428  16.1614561
  65.8492374  25.6152415  15.5875528  65.5507374  25.8850384  17.0466948
  51.9681454   0.5022382  46.4553452  52.5274515  -0.2570973  46.2915945
  51.4604235   0.6037996  45.6502771  60.3272629  17.3161912   5.3536266
  61.1198521  16.8989551   5.6911868  59.8561096  16.6112661   4.9094111
  69.1127253  75.6116295  63.0642509  69.2857313  75.6494617  64.0049267
  68.1915903  75.3593922  63.0000877   9.0198958  58.6122847  49.7197676
   8.8480628  59.5022392  49.4120502   9.4356149  58.1774950  48.9752102
   3.3076486  52.6715994  68.9789629   3.5042897  51.7893791  69.2940044
   3.1984067  53.1914616  69.7752285  84.6867657  16.4267886  20.5683923
  85.2533150  16.6571128  21.3047409  83.8714695  16.1343300  20.9758115
  66.2903309  26.2579966  24.9588180  65.4804802  25.9381676  24.5612264
  66.9297647  25.5661058  24.7895575  68.3651781  10.8546650  13.6059761
  69.2715693  10.6019533  13.4304166  67.8455830  10.1119554  13.2983482
   3.9278567  24.3627286  22.1051979   3.4865990  24.9059415  21.4521718
   4.8160905  24.2538095  21.7654777  45.6866121   4.9717364  60.5302572
  44.9718714   4.9657273  59.8935938  45.2555561   5.1142740  61.3729334
  20.1892090   1.2405331  44.9609327  21.0673022   1.3558736  44.5977783
  20.0783348   0.2917926  45.0228214  57.3316860  43.1765175   5.6924218
  58.2744551  43.1315994   5.5330521  57.1536493  42.4452782   6.2838829
  12.7309799  67.6722050  65.1601648  11.9601738  67.2306204  64.8036671
  13.0317485  68.2394934  64.4502687  54.6620226   3.8891947  67.1236086
  55.1234627   4.2170709  66.3517237  53.7445402   4.1127169  66.9670916
  14.6199822  37.8713322  14.2652130  13.9035809  37.3058844  14.5537782
  14.6826148  37.7164435  13.3227074  80.4233551  41.0295486  30.9045911
  80.4807949  40.8551979  31.8440223  80.2241611  41.9639683  30.8461499
  84.8353672  66.4049006  28.0652642  84.2472744  65.6533909  28.1401539
  84.5889091  66.8204880  27.2389603  72.1139050  32.6981974   8.0818236
  71.8290234  33.0215859   8.9365131  72.8897333  32.1707129   8.2717663
  74.7446203   3.0222368  51.1299896  73.8176727   2.8400138  50.9757185
  75.0963783   3.2248935  50.2631426  71.7375612  39.6347713  12.1054709
  71.0987806  39.3610024  11.4472592  71.8979502  38.8473988  12.6256156
  75.6914043  18.3856738   3.3846584  76.3500500  19.0581167   3.2107592
  76.1930370  17.6365805   3.7063083  80.6840706  27.6401544  12.5633550
  80.6651306  26.8710971  13.1329346  80.1055717  28.2704496  12.9926515
   1.2929419  52.0635414  60.2879953   1.0820124  51.7138815  59.4222736
   1.6841485  52.9192162  60.1118994  72.5517082  71.2452984   2.0710465
  73.3937025  71.5978956   2.3590626  72.2518539  70.7106304   2.8062010
  24.7299767  69.2045403  58.7577009  25.1328921  69.9899387  58.3875179
  25.4229951  68.8048029  59.2832184  11.0333025  69.9781990  59.9408054
  10.6629038  69.1242361  60.1639414  11.4072633  70.2989054  60.7614994
  70.4160309  60.5590439  67.6101828  70.4146099  59.8907280  66.9249201
  70.2352953  61.3771296  67.1472645  56.3641500  30.8468604  19.6677256
  57.0040655  31.4502192  20.0454736  55.8317947  31.3933945  19.0896833
  83.8650131  40.8708572  23.1135345  84.7967148  40.7076693  23.2603145
  83.8307667  41.7577219  22.7550149  57.7096176  52.9373932   8.0454504
  57.3255825  53.8000631   7.8887594  58.5574532  53.1224346   8.4493864
  28.9579964  66.3007832  47.0283365  28.5869122  65.4234171  46.9347858
  28.3292794  66.8746805  46.5906239  67.1153879  37.3679638  26.0753703
  67.1127033  37.2726274  25.1229358  66.5107489  36.6937208  26.3852739
  63.9418268   6.7164022  69.9153662  64.5216274   6.3217956  69.2639399
  63.2579756   7.1438265  69.3997240  82.5699806  34.7457719  15.1914275
  83.4602737  34.3999267  15.1281953  82.6146889  35.6016874  14.7652328
   7.2781909  74.3051052  56.6963387   7.8375340  73.6216736  56.3271570
   6.6710627  74.5253038  55.9898424  76.1707449  45.0005484  20.4614663
  75.3190279  45.3706455  20.6934953  75.9800386  44.0945625  20.2184534
  64.7172260  33.3087659  13.8331842  64.4504452  32.6762223  13.1661427
  64.7422314  32.8036499  14.6458745  73.4103251  49.9634743   1.6024473
  73.5149097  50.2978277   2.4932344  73.2520628  50.7435942   1.0708451
  12.1238053  74.8768711  63.5563517  12.5223088  74.1040087  63.9564896
  11.3457096  74.5416737  63.1108856  11.6998863  75.5304337  68.9073801
  12.2739291  75.6468868  68.1503201  10.9178364  75.1079416  68.5522318
   9.6467757  59.1331673   1.3504644  10.5307901  58.8182068   1.5390085
   9.4093901  59.6540451   2.1176469  73.7633133  67.8399849  66.6854954
  73.5300207  68.3700800  67.4476004  72.9668760  67.3495722  66.4819860
  62.5873232   2.3128185  68.4617996  61.6763115   2.5735134  68.3264208
  62.6441193   1.4353998  68.0834579  29.7749639   4.3582970  69.4855022
  28.8747025   4.6719107  69.3994331  30.2042222   4.6375597  68.6768103
  32.3144627  14.1925323  64.7296619  32.8569818  13.5686719  64.2472696
  32.4486470  15.0258243  64.2781639  85.6367874  73.2924986  62.2324991
  85.2915382  73.1760693  63.1176424  84.9125004  73.6813021  61.7421198
  76.8251514  35.1037121   3.0585077  76.7723417  34.3709946   2.4448575
  76.0432291  35.6250858   2.8768587   5.7594651  62.3448467  21.1554861
   5.2210450  62.9527044  21.6622853   5.4005557  61.4809036  21.3580298
  68.9685917  38.1044888   1.2417782  68.7097597  38.7706685   1.8785216
  68.1652164  37.9093122   0.7593602  68.3951998  31.3268018   5.4611963
  68.2697058  30.5878496   6.0565370  67.6506948  31.2802434   4.8613787
  81.8643475  26.7802954   0.6110134  81.2090969  27.4493861   0.8089937
  82.7026367  27.2359872   0.6874324  57.3089075  72.2410774   7.3643053
  56.7039967  72.5739717   8.0272520  56.8647814  71.4768362   6.9969946
  60.5158091  27.3739672   1.1377205  60.6341696  27.8524566   1.9582522
  60.4055738  28.0567908   0.4760318  76.2515163   9.7153580   6.2871599
  76.1939573  10.6589019   6.1366838  76.0518694   9.6085215   7.2171915
  80.1210594  58.1175375  32.3162794  80.9308910  58.0916405  31.8066406
  79.7131681  57.2655821  32.1612740  50.2887058  41.8905401  17.8366578
  50.8797359  41.1601782  17.6536584  49.6979380  41.9149828  17.0839083
  46.0026884  45.2813244   6.6274583  45.6803894  44.6655750   5.9692729
  45.4696083  45.1042175   7.4025023  37.2857642   7.8032738  61.3546896
  36.4956307   7.4690360  60.9301853  36.9994330   8.0486757  62.2344780
  41.2134647   1.1012124  47.9728985  40.4748678   1.7086026  47.9306746
  40.8920479   0.3695371  48.4997559  82.0836544  56.7334032  49.1693878
  81.9306564  57.5577593  49.6311903  82.6528549  56.2332773  49.7542953
  75.3804636  48.5523796  23.3966184  75.1061344  48.0722809  24.1779494
  74.7889090  49.3038750  23.3572698  15.0771189  74.8914003  59.2709446
  15.2701795  75.7937527  59.5253563  14.8854256  74.9423647  58.3345222
  59.5717001  37.0456934  29.0447211  59.4429922  37.5729775  29.8331618
  60.3873396  37.3747730  28.6670136  59.7890282   5.0428498  69.4908953
  58.9452028   5.1159912  69.9368095  60.4369450   5.2092826  70.1755381
  80.8234024  63.2007504  64.1447639  80.8192921  63.1272936  65.0991344
  81.2849808  64.0208197  63.9696503  32.5398779  80.6551838   1.9298916
  32.8786421  81.3084793   2.5419962  32.2240353  79.9448061   2.4883246
  68.7330770  35.5410147   7.7701616  69.0140629  34.8882341   8.4113753
  68.4688520  35.0281930   7.0063347  16.1644053  70.1108265  68.2333231
  16.5115690  70.8631086  67.7539730  16.0329545  69.4398737  67.5634146
  39.6512580  76.3259935  63.6819029  39.0573859  76.7453909  63.0592871
  39.1571879  76.2960052  64.5011902  43.3457947  29.3806005   3.2005253
  43.9745378  29.0608716   3.8475874  43.6948729  29.0835047   2.3602207
  10.3428841  34.3583632  16.5482628  10.0896072  35.2800488  16.4974904
  10.0476623  33.9828038  15.7187855   2.4742551  24.6538758  15.8632064
   1.8834186  25.3926396  15.7170188   2.9234728  24.5371580  15.0260603
  19.5599389  73.2915211  42.8942680  19.3184650  74.2175770  42.9126596
  20.3006959  73.2251453  43.4968519  74.3875456  24.4135451   3.8637191
  74.7427273  23.8061905   4.5127150  73.6850739  23.9235306   3.4363422
  48.2158661  22.3757696   8.8123095  48.6230516  23.0648327   8.2873094
  48.9105129  22.0814204   9.4014233  22.1407413  71.9440174  60.8130550
  21.4512515  72.5635862  61.0517359  21.7497897  71.4032984  60.1267529
  12.2999752  69.8341608  62.5425768  13.0450428  70.4343987  62.5139713
  11.5954292  70.3457069  62.9402828  52.1746397  23.1402779   3.5743102
  53.0635405  22.7851892   3.5751843  52.1225214  23.6574244   4.3780980
  69.5768452  66.9533777  24.5698214  69.9447441  66.8497610  25.4473996
  69.3146181  67.8729630  24.5270848  47.0992947  38.8403702  19.6844435
  46.2115955  38.4865451  19.6293807  47.0693207  39.6442485  19.1656816
  60.9115028  56.8049765  27.5015783  60.0207138  56.6345978  27.8076887
  61.4735365  56.4146900  28.1709266   7.0681012  54.5070028  70.1489067
   7.1277148  54.5882177  69.1970253   6.2443495  54.9389076  70.3750181
  35.0754356  10.7578278  66.5707493  34.6129179  10.3799975  65.8227158
  34.6609020  11.6104305  66.7028952  64.4873333  40.3169870  22.0377064
  64.2019987  41.0395050  21.4784360  65.4183388  40.4824114  22.1863484
   3.8979179  58.3814192  52.1239758   3.5013711  58.9235401  52.8059483
   3.2697225  57.6724863  51.9860744  14.5437825  73.3888626  47.0748806
  13.7116575  73.5655928  46.6360569  15.1162338  74.1052008  46.8002987
  84.8386097  62.3504019  60.5927706  85.4683495  61.6412687  60.7223320
  84.7956276  62.7906179  61.4416456  36.1757231   1.9315560  60.5516958
  36.8577147   2.1778768  59.9268389  36.5614772   1.2164659  61.0577297
  84.8768616  62.9323244  19.9377632  84.5563221  63.4995604  20.6389976
  85.8117008  62.8334475  20.1181269  54.4182110  39.7510219  23.7900639
  55.0668430  40.3442621  24.1689801  54.5345163  39.8414969  22.8442740
  48.2309341  15.8376908  18.7654352  48.2622814  16.1647284  17.8663826
  49.0917826  16.0483575  19.1270864  64.6423817  60.1998949  25.0941586
  65.2016163  60.5886650  25.7667208  65.1991034  59.5492077  24.6664953
  67.8790331  58.2847643  11.7362618  68.4904146  58.3136559  12.4722028
  67.7575922  59.2016363  11.4896297   9.3165100  43.3877039  20.7139683
   9.8118508  44.1726589  20.9478736   8.4501171  43.7145853  20.4716015
   4.4239956  60.0498104  19.8491728   4.7378120  60.4575682  19.0420270
   3.8885030  59.3137074  19.5531464  55.3260279  70.6788301   1.6953892
  55.9955549  70.6791782   2.3794681  55.6725121  71.2629223   1.0208396
   1.5589100  43.7925720   3.7712139   2.1576925  43.0464458   3.7397593
   2.0113601  44.4401550   4.3117282  13.3174622  60.3042221  16.6761386
  13.4637606  61.2140369  16.9351077  13.9953172  59.8115587  17.1387649
  74.5653200  43.5505772  30.4328489  75.0851488  44.3049860  30.7101083
  74.5531273  42.9742432  31.1969972  30.7666492  68.4417152  20.7519031
  31.5569282  68.4600496  20.2121282  30.4177260  69.3312979  20.6960011
  84.0550041  76.4811611  14.9945283  83.7946510  76.0337210  15.7996643
  83.8872337  75.8431482  14.3009663  74.1428852  26.4834189  22.5408101
  74.7212458  26.5804529  21.7842937  74.6296740  26.8746781  23.2661963
  80.4835415  50.2319193   4.5895159  80.7103062  50.9189892   3.9628226
  79.7476292  49.7723484   4.1852096  14.8988676  58.0787754   5.6811255
  14.3689156  58.6912107   5.1709187  14.5263731  57.2190332   5.4853803
  56.7999792  11.9592607  54.7063255  57.1848822  12.3833859  53.9393806
  56.8776560  11.0223877  54.5261383  19.3523455   5.1305145  64.4911528
  19.9356747   4.3735534  64.4366646  18.6284387   4.8357522  65.0436974
  62.9124165  12.4209332  58.2338905  62.8872919  12.6001394  59.1738319
  63.2923937  11.5449214  58.1671572  76.7748213  21.3281894  70.4279709
  76.6407251  22.2759318  70.4339409  76.6961098  21.0809517  69.5066118
  49.2370605   6.7172056  66.2985468  48.4911633   6.7910552  66.8938732
  50.0034761   6.8423277  66.8581724  54.4290876  40.0224066   9.5375001
  54.2085314  40.9493876   9.6286041  53.8408041  39.5753145  10.1459885
  68.5934210  26.7200446  65.3152847  69.5441914  26.6144896  65.3488684
  68.4101105  26.9511366  64.4046688  63.9895725  30.9113455  15.7040095
  63.4975195  30.0976610  15.5943263  64.6343470  30.7117057  16.3827181
  60.2202511  43.4941864  26.5589261  60.5992603  42.9356670  25.8802223
  60.6507492  43.2149029  27.3669505  72.4582005  29.1658068  32.0492101
  71.9475794  29.1210961  32.8576016  72.7469730  30.0769925  31.9984078
   2.5335544  58.8949680  39.5217299   1.7980041  58.7004471  40.1025581
   2.2308505  59.6312761  38.9902663  26.4806962  44.9760675  17.0689476
  26.1323404  45.3889990  16.2787771  26.6018844  44.0581799  16.8259883
   1.1734755  50.9683847   1.6043456   2.0580685  50.9888172   1.9694613
   0.8333477  50.1076555   1.8486539  57.9158497   2.7089968  60.8642960
  58.0577374   3.1619737  61.6955042  58.6853075   2.9270044  60.3383303
   1.3815378  64.3721390  19.7526968   1.3835646  64.3883801  20.7097578
   0.5219710  64.7157288  19.5091391  68.0914021  41.7772722   5.0345069
  68.9546824  42.1872234   5.0885433  68.2433128  40.8654022   5.2827829
  14.4590795  48.1562519  11.6729045  14.2388117  48.5907841  10.8489513
  15.1325083  47.5189638  11.4350331   0.4401879  14.0587366   2.8939912
   0.5808184  14.9627519   3.1754360  -0.1062039  14.1336989   2.1116431
  59.5306063  37.4239969  41.2107515  60.4017162  37.7459693  41.4425659
  58.9808607  37.6617312  41.9574070  81.3309479  18.3619237  11.4203203
  80.7727623  19.1365159  11.4886189  81.9297791  18.5609424  10.7005847
  75.3619480  56.3679743   0.7168473  75.8865547  56.2671947  -0.0774215
  75.4073954  57.3029375   0.9168772   4.0660125  35.6291270  17.5568724
   4.9894220  35.4713798  17.3602438   3.6694881  35.8206868  16.7069876
  54.4995785  14.9776518  65.5613089  55.1118088  14.2422211  65.5379152
  54.3893099  15.2267838  64.6437025  17.8649163  41.3004160  24.8823595
  17.6385438  40.7822847  24.1100049  17.0226431  41.5068913  25.2875423
  71.5542364  53.6057138  12.3265314  70.7647419  53.5466385  11.7885339
  72.2711134  53.6607027  11.6946363  81.9504642  51.6453266  23.3091617
  82.2715378  52.4505901  23.7149930  82.5705147  50.9721279  23.5894704
  83.4500027  55.8594227  26.4480805  84.1538239  56.5058899  26.5023375
  83.1216526  55.7870436  27.3442841  66.2931156  38.4922290   7.9458439
  65.6392431  39.1820049   7.8322840  66.8267870  38.5351229   7.1523809
   6.6917491  67.6926470  61.6350317   6.1198121  67.6161337  62.3987532
   6.8979138  68.6259174  61.5827417  79.7636795  72.6364803  43.1201315
  79.3867826  73.1811428  42.4290943  79.2358780  72.8324747  43.8942385
  80.7893467  58.8332033  50.8069706  80.2783966  58.1830025  51.2890434
  81.3035679  59.2801857  51.4792919  24.6042848   4.5103735  43.6303043
  24.1541529   4.1085270  42.8872490  24.1089559   4.2197391  44.3960810
  20.6835866  68.8173580  41.4485455  21.2609577  68.9628935  42.1980095
  21.0252738  68.0255604  41.0331726  29.0816259  72.8072357  58.0835342
  29.9612141  73.1444120  58.2534504  29.0915680  72.5684547  57.1566486
   7.7614701  79.5957565  39.9539566   7.8246969  78.9446545  40.6527424
   8.6165959  80.0258350  39.9492311  67.9477310  59.7254944  64.0408278
  67.8408527  59.0975189  63.3263636  67.1105766  59.7055054  64.5045137
  82.7259445  56.2126017  59.1356039  83.4463501  55.8499622  59.6511030
  81.9534302  55.7312679  59.4318581   5.8859593  68.4779072  35.4370093
   6.3171351  68.9725351  34.7401142   5.1877278  67.9970121  34.9926615
   1.4278580  62.2119427  43.0423164   1.1767957  61.3050270  42.8670931
   0.9158850  62.7269506  42.4187136   9.7320926  62.9865980  40.9650326
  10.4712033  62.8222132  41.5506315   9.0181404  62.4619961  41.3273859
  42.7932930  79.0762138  10.2321887  43.3788300  79.7138071   9.8237133
  42.7753448  79.3251419  11.1562800  39.8214412  16.5761125   1.8816222
  39.2711639  17.3428106   2.0416257  40.4464960  16.8645072   1.2165155
   7.1034610  49.7917366  62.6813889   6.2996173  49.8541594  63.1973076
   7.2921884  48.8540506  62.6445246  66.6347408  50.2885342  56.3840675
  67.4793005  50.1281977  55.9630585  66.3503170  51.1337042  56.0361862
  85.2269840  79.8600531  55.8660746  84.4647789  79.5024490  56.3214874
  85.4431057  80.6570339  56.3501692  38.9547610   5.0668836  67.1213579
  39.8847175   5.2687967  67.0182037  38.5404968   5.4425395  66.3445044
  74.9297953  66.9513226  23.5750341  74.4922638  66.1453295  23.3008504
  74.6101809  67.1069336  24.4637752  12.6673281  50.3670835  69.9538422
  12.4241972  49.7923470  70.6796503  12.4521303  49.8646593  69.1680384
  49.3726110   2.6847747   6.4059597  49.2414856   2.1081029   5.6533062
  48.5872364   3.2315063   6.4284885  23.9698195  55.9660196  56.1647034
  24.3965387  56.4923382  55.4885864  24.3011999  55.0793123  56.0226774
  79.2133379  58.7587595  56.5601063  79.9126148  58.3359098  57.0585489
  79.2375088  58.3315849  55.7038498  13.7859929  63.2687712  55.5712509
  13.8913655  64.0130472  54.9786472  13.4417593  62.5682783  55.0171328
  -0.0304523  44.4151735  62.2932482   0.7672585  44.8137617  61.9453716
   0.1790766  43.4840107  62.3658419  77.8148413  71.0764599  65.8725882
  77.7660227  72.0177460  65.7057810  77.5149632  70.9774780  66.7761993
  35.0500631   9.1861320  21.8485856  35.9806013   9.3753421  21.9691372
  34.7563744   8.8736111  22.7043366  14.0878022  65.1441145  70.1507235
  13.1544006  64.9564981  70.2496767  14.4668162  64.3196964  69.8459053
  82.3731899  60.7707310  51.9849825  82.5299072  60.6352472  52.9194927
  82.1249390  61.6925192  51.9149208  65.3207541  54.6763039  60.0594854
  66.0322905  54.2050123  60.4928780  65.3027344  54.3190813  59.1716242
   7.2976518  62.1381569  46.1900234   8.2485878  62.0620871  46.2685537
   6.9925654  61.2362576  46.0913420   2.8200197  62.0205975  68.3055067
   3.1503248  61.1562777  68.5506105   3.6049151  62.5254345  68.0926418
   2.7028969  55.4926443  41.2958860   1.9779983  55.3809690  40.6808376
   3.4701610  55.6278753  40.7397795  49.4562197  56.9259787   0.6200773
  49.2243385  57.7959204   0.2950118  49.8682261  57.0892859   1.4684951
  76.9699192  66.2181854  60.1514292  77.7722788  66.0472631  60.6446171
  76.6585398  67.0596981  60.4847813  64.1315842  80.1557350  56.8813658
  65.0803280  80.2592468  56.8078804  63.9365196  79.3681812  56.3734913
  21.3713121  46.4222002  58.4409523  21.2486029  45.4880714  58.6100054
  20.7387614  46.8545532  59.0146971  11.2446201  60.0387955  48.2040882
  11.9593036  60.3768349  48.7437105  11.3505542  59.0879679  48.2345629
  24.6822906  64.3337440  41.4772511  25.1144934  65.1298332  41.1679316
  25.3920221  63.7981939  41.8317890  23.5234547  78.4326982  67.1761370
  23.2722855  77.6064682  67.5890493  23.9281273  78.1734562  66.3483286
   3.0955672  68.4446001  44.8585224   3.4003413  69.2790985  45.2148342
   3.8978234  67.9637957  44.6549416  46.1123514   2.0498091  63.2031727
  46.0291338   2.9844522  63.3922434  45.5052233   1.6275251  63.8108778
  49.3494034  38.2990384  12.9226267  49.5841980  38.9842558  13.5483897
  48.5150719  38.5879421  12.5529599   2.9278785  60.4297113  53.7575722
   2.6418149  60.6568050  54.6423435   3.6597165  61.0215139  53.5831690
  85.5844021  69.6497059  52.8813362  85.6829643  68.6979485  52.8555012
  84.6424770  69.7954321  52.7930927  74.0967989  60.2352571  36.3116932
  74.9793196  59.8646688  36.3188529  73.8001537  60.1649857  37.2190499
   3.5635254  69.7738171  65.3113127   3.8087645  68.9071369  65.6352806
   2.6927516  69.6506786  64.9333954  33.7937737  30.0884652   6.8184781
  33.1723118  30.0565243   7.5457984  33.2865834  29.8058534   6.0574800
  47.6120186  13.6765730  45.3515768  48.3855057  14.2387807  45.3083086
  47.7910995  13.0782318  46.0769367  57.2206402   4.5460013  39.6527719
  57.3754406   5.2728426  39.0494728  57.8812075   4.6574044  40.3364897
   5.4723680  65.6016493  70.0270557   5.8765996  66.2423468  69.4419622
   4.7666669  66.0832262  70.4586792  59.9966240  53.6561060   9.3828166
  60.3090954  52.9968643  10.0024903  60.7091188  53.7468290   8.7500864
  33.6603975  17.5845468  51.3561726  32.7484989  17.4341714  51.1070538
  33.6552334  17.5554872  52.3129177  61.6137695  15.1240468  59.8370695
  61.8110371  15.9652996  59.4252300  60.6768227  14.9978936  59.6872616
  77.5196981  66.0109758  56.9547892  77.7409267  65.0904942  57.0962334
  77.3054123  66.3425398  57.8267860  55.5995035   1.9392228   8.5418230
  56.3249397   1.3171272   8.5963672  55.8403111   2.6415312   9.1459811
  84.7017860  63.7291574  45.4484367  84.9635696  64.5718575  45.0775433
  85.4579926  63.1597281  45.3065062  34.2126107   4.2568150  47.8301954
  34.5374441   3.6473048  47.1674681  34.0340853   3.7077084  48.5936403
  15.3763783   5.4560238  44.0293550  15.9201145   5.8106387  43.3259106
  14.5318627   5.8939350  43.9232445  14.9821413  78.0511570  66.2664127
  14.2591703  78.1724596  65.6509209  15.6141555  77.5124884  65.7903576
  25.2627492  74.3823147  55.8915663  26.0059404  74.5455360  55.3108311
  24.5350409  74.8554325  55.4880381  42.2245264  27.7268863   1.1803199
  42.1137619  26.9509077   1.7297024  42.2937965  27.3821449   0.2900464
  37.0000362   0.4768649  45.1992083  36.7565632  -0.1844358  45.8470011
  37.7788711   0.8956923  45.5655813  54.3245745  25.2330184   8.6088562
  53.7405062  25.9807277   8.4822619  54.1810846  24.9681425   9.5174176
  81.0762310  51.4050150  51.1107779  80.2101135  51.2468529  50.7351971
  81.1294174  50.8022022  51.8524075  65.7463217  23.3168101  58.5734415
  65.7200289  23.1234598  59.5105410  65.0061798  22.8321528  58.2080269
   1.7517272  71.7030573  40.7987738   1.3930015  72.5016403  40.4117155
   1.6099766  71.0297680  40.1333284  65.8740854  41.6437674  17.4109995
  65.1913929  42.2721386  17.6461804  66.1369085  41.8957806  16.5257633
  82.6938057  33.0718255   4.6563178  83.0320644  33.2488084   5.5340940
  81.7911434  32.7877283   4.8002625   0.8618781  52.5665379  65.2934074
   0.0347783  53.0197096  65.4570341   1.5191805  53.0982208  65.7422924
  70.9195518  49.9483204  38.1358981  70.7574511  50.2513075  37.2425032
  70.0602770  49.6723700  38.4548402  37.0391631  76.5645218  38.2710934
  36.3203692  76.0045338  38.5643172  37.1067238  76.3951683  37.3314190
   8.8172925  58.0550814  41.1313868   9.6787351  57.9423141  41.5331745
   8.6762828  57.2479153  40.6365776  62.8184319  -0.1319190  55.9987068
  62.7490377   0.7171689  56.4351273  63.6355209  -0.0802519  55.5027866
  32.1254158   5.0395650  53.7390375  33.0736899   5.1436704  53.6604738
  31.7747760   5.4255670  52.9363632  38.4211802  11.2911463  65.0284004
  39.0391159  10.5604160  65.0489187  38.9632034  12.0580447  64.8431730
  23.7802672  63.4749222  30.1882434  23.9336061  63.6735392  31.1119699
  24.3055654  64.1196012  29.7142363  14.9183071  69.5058537  52.6588392
  15.7109165  69.5948172  52.1296072  14.3326247  68.9692974  52.1246910
  17.8698421  78.0334139  46.7113352  18.6484957  77.7857161  46.2127590
  18.1172848  78.8450193  47.1543932   2.5858560  63.5677576  51.9454718
   2.1179557  63.0131912  52.5697803   3.1731319  64.0951920  52.4869061
   4.9840888  27.1731043  33.4678626   5.9356505  27.2737169  33.4425712
   4.7041401  27.7255797  34.1976786  44.6329451  17.9352701   4.0649506
  45.0968933  18.6004531   3.5565063  45.2042198  17.1678925   4.0331978
   9.1495776  56.2541342  60.0155926   9.3318415  55.6537676  59.2927027
   8.8683856  57.0637846  59.5894146  85.0200748  23.7135696  24.9443150
  85.4242706  24.5356822  24.6668577  85.2413464  23.6392069  25.8726144
  66.7514372  35.1821947  58.5245037  66.9965458  35.6311369  57.7154303
  66.5460205  34.2885733  58.2497787   4.4440556  49.3779469  54.2232418
   4.6995202  50.2194214  53.8452339   5.1860964  49.1274309  54.7735596
   7.1903878  56.6544294  24.6210241   6.9915354  55.7438326  24.4030714
   7.8277814  56.9251728  23.9602232  15.5076993  56.0394335  37.7053261
  16.4565206  55.9169579  37.6741910  15.1481628  55.1954794  37.4320030
  84.1006565  57.3017788  34.7239494  83.9413071  56.4558744  34.3052793
  83.2415962  57.7233410  34.7467661  86.0668774  38.5100031  40.2494621
  85.2317535  38.8134313  39.8934698  85.9567669  37.5640154  40.3454638
  11.4865053  45.1961756  12.0534325  10.5971706  45.4355192  12.3142612
  11.6180813  45.6401491  11.2156928  14.2668033  40.7756090  43.8973236
  13.6781359  41.5110874  44.0669537  14.4353402  40.3995323  44.7612619
  85.9207249  53.7447023  29.7618103  85.0035954  53.4774351  29.8223853
  86.2913227  53.5244846  30.6164432  80.4020214  48.2684660  41.4311123
  80.4599094  49.0802288  41.9350243  80.4707527  47.5742674  42.0865488
   9.3312490  52.5948668  46.9516182   9.0077311  52.9495621  47.7797270
   9.6023470  51.7015934  47.1632862  80.6969547  50.5368423  58.0463696
  81.3397121  51.1867237  58.3305311  81.2030315  49.9090290  57.5306463
  82.9896069  31.4884019  34.2938733  82.8493404  31.0828090  33.4382725
  83.7520504  31.0340047  34.6522403  83.3583927  39.4884372  53.9823294
  82.9795647  39.2162609  54.8181772  83.6375523  38.6716580  53.5685968
  34.0158415  46.5068150   7.9186529  33.8676691  45.5862474   8.1350458
  33.7843943  46.5753794   6.9923896  83.7009621  43.4861803  30.3984046
  83.0792999  43.0484390  29.8169017  83.2676125  44.3048668  30.6396484
  20.9285116  55.6065750  55.0566339  20.7102418  55.0407982  55.7972336
  21.8851662  55.6387520  55.0536013  59.4282389  32.0084000  57.1485376
  58.9411831  32.1492505  56.3366508  59.5505619  32.8863120  57.5098419
  11.7026329  60.5635834  28.1232595  11.2607908  60.8682728  27.3306870
  12.5483727  60.2374744  27.8156734   1.0444041  75.9934235  44.7685194
   0.8303673  75.9646416  43.8360023   1.9891745  76.1452436  44.7928381
  70.5916023  57.9308510  47.0913553  71.5393353  57.7994776  47.1193075
  70.2938128  57.3745346  46.3715839   9.1326910  42.9120207  54.2048311
  10.0608420  42.6806593  54.1696167   9.1261953  43.8431120  54.4267702
  81.2293339  55.1790047  36.7106080  80.6818962  55.7193565  36.1408949
  81.4451218  55.7503986  37.4476147  30.2453232  73.9383078   6.2605113
  30.3557968  73.7599754   7.1944416  29.5618629  73.3298206   5.9796911
  77.9457426  40.9422398  36.7461801  77.7924109  41.2881231  37.6254344
  77.3031282  40.2393913  36.6498590  58.6141825  43.8693523  52.4841785
  59.1610575  43.1322479  52.2124481  57.7235985  43.6044312  52.2541475
  81.9215870  50.1809549  36.0101581  82.1861553  50.1268959  35.0918388
  82.5046921  49.5722103  36.4636445  76.4279318  59.0642357  37.4434853
  77.2376299  58.5613441  37.3555970  75.8695650  58.5234785  38.0020881
  79.3648911  55.0264454  60.1786518  79.5663881  54.3039942  60.7733774
  79.1603708  54.6011782  59.3458557  70.7333565  20.9170961  62.0536280
  70.2262878  21.7110777  62.2230577  71.5360975  21.2300038  61.6365862
  59.9969053  13.8100600   1.0831758  60.5452919  13.2334876   1.6152149
  60.2713299  14.6939814   1.3273157   9.7145271  53.7317562  26.1182976
   9.8855686  54.1621113  25.2805781  10.5834854  53.5375929  26.4696431
  56.4827824  72.8075409  38.0800748  57.2866964  72.4440145  37.7088547
  56.7709541  73.2746363  38.8643026  74.7616196  62.0841408  53.6540699
  74.0347147  62.6249361  53.9629126  75.2972603  61.9351959  54.4332600
  20.3253651  52.2636414  43.0362177  20.7294154  52.6897526  43.7921286
  20.8772492  52.5156784  42.2958565  77.7078533  17.7188957  46.2675333
  78.0451727  17.6011479  45.3795099  77.8231239  16.8642128  46.6828156
   8.3616799  32.3638153  44.0100908   8.0374575  32.4996829  43.1197786
   9.1668737  31.8586731  43.8972855  74.5201111  47.7749634  25.9881926
  73.5984850  48.0131388  25.8876348  74.5066261  46.9935799  26.5409040
  28.6754942   4.3873885  56.9663525  28.2151961   4.2524150  57.7946901
  28.5253024   5.3091013  56.7563105  25.1800179  61.0974884  44.3068790
  25.4497004  60.6334257  45.0994349  25.0706220  60.4085350  43.6514330
  69.3328047  53.7966156  19.7526884  68.8149643  54.5642662  19.5102274
  69.8139143  53.5710430  18.9565241   2.9029354  50.6228971  50.1915646
   1.9548540  50.5798769  50.3161526   3.0855113  51.5535641  50.0621223
  81.8147469  74.9268818  50.0894451  82.6019382  75.4322767  49.8866224
  81.5629578  74.5306730  49.2552662   6.9858915  75.3024912  43.6211824
   7.1704859  76.0727119  44.1586971   7.8043532  75.1346493  43.1540871
  63.4534788  47.5507355  48.8166332  63.7617826  47.7034140  49.7098732
  63.8827467  46.7375326  48.5508060   0.2395117  52.7896261  45.7869530
   0.7063838  53.5310507  45.4015207   0.8593990  52.4155664  46.4130926
   0.8982357  76.8886709  22.7885318   0.0298241  76.7778635  23.1755924
   0.7414815  77.3891592  21.9878006  83.7669563  65.3943443  34.5359468
  82.9358387  65.3772163  35.0104928  84.3490505  64.8367596  35.0521827
   8.3421707  67.1993971  38.7376738   7.7921468  66.5578556  39.1872597
   9.2368233  66.9574976  38.9770746  25.7340813  45.0738382  11.1211848
  26.1561251  45.8954477  11.3723123  26.4060116  44.5992184  10.6318188
  11.1842871  68.0602551  33.4547567  11.8970621  68.0791473  32.8161430
  11.1736858  67.1583652  33.7752414  59.2351675  62.4269629  23.8145113
  58.5522223  62.8820992  23.3218932  59.9600315  62.3407555  23.1953430
  18.8550234  50.0920486  52.8639221  18.9716721  49.2342377  53.2723236
  19.6174490  50.1915550  52.2938013  70.4333353  28.3665657  36.8362451
  71.2336731  28.5375118  37.3327041  70.1826191  27.4768996  37.0849776
   0.5983081  29.9543762  43.1243706   1.4939395  29.9929166  42.7888250
   0.4190838  30.8431363  43.4313202  77.9244709  79.1648912  45.0295544
  77.8912210  78.8900471  45.9458447  78.8186646  78.9657784  44.7520733
  -0.1656587  44.7695160  42.3408175   0.5253799  44.5611477  42.9695272
  -0.3007413  45.7122374  42.4370766  20.1122212  75.3127193  10.1645947
  20.9314823  75.2461481   9.6740741  19.6264613  74.5226288   9.9278927
  35.5649877  61.5803528  53.7871075  36.2493205  62.2253656  53.9656496
  34.7747493  61.9558477  54.1753817  78.5511875  50.1642990  53.3471727
  78.2787466  50.0188255  52.4411678  78.1546164  51.0024214  53.5848951
   3.9549348  55.3878641  19.4856799   4.8779482  55.6121588  19.3674791
   3.8363418  55.3539848  20.4348993  24.1478014  56.1278725  25.5538845
  24.2205167  56.0117531  24.6065402  23.6042905  56.9088268  25.6584477
  18.8763738  56.9994545  40.8210802  19.4030714  57.7186489  41.1697674
  18.7812114  56.3939285  41.5562773  26.5765142  67.5271082  45.6813669
  25.8121967  67.7530575  45.1512766  26.2921953  67.6689911  46.5842867
  17.5386107  57.8625965  52.1095896  17.4457943  57.1836853  51.4412308
  17.5322711  57.3847008  52.9389286  75.0430870  41.8131590  32.3728037
  75.1840448  40.8704758  32.4605989  75.9051847  42.1996021  32.5266790
  29.7354603  71.2087727  36.4593458  30.5768466  71.6501045  36.3430429
  29.1228890  71.7170429  35.9276986  35.6502247  78.0939198  50.0499821
  35.0245118  77.3746729  49.9639273  36.0810232  78.1400156  49.1964483
  23.8641644  48.4518862  34.1628957  24.1878486  49.2552805  33.7554455
  23.7553310  47.8408098  33.4342170  83.3841801  56.6982031  40.4593945
  82.6236820  56.9627190  40.9769869  83.2855320  57.1681499  39.6313524
   7.6819009  63.3313084  64.0785074   6.8376899  63.7763071  64.1527748
   8.1868762  63.6492014  64.8269606  84.9381924  53.7760496  56.3370228
  85.4874420  54.0855837  55.6167793  84.2094612  54.3959951  56.3660431
   2.2722918  53.9140081  43.4242105   2.4216276  54.6448946  42.8244305
   3.1431961  53.5469866  43.5760498   9.1702354  61.7524719  60.2582932
   9.5492184  61.7690229  61.1371183   9.6852082  62.3896980  59.7633457
   2.9233795  62.1490049  63.3281755   2.6617715  63.0594397  63.4656715
   2.6656958  61.7014313  64.1340923   2.8494284  51.4674139  33.1377935
   3.5176399  51.0737038  32.5767946   2.6128557  50.7726479  33.7522602
  29.6344233  52.1446705  31.7010069  29.8765039  53.0701590  31.6678953
  29.0813899  52.0694304  32.4786472  63.9193726  40.7490778  45.5174875
  63.5928202  41.2982416  46.2302399  63.7262440  39.8541594  45.7968616
   5.6879073  47.3604441  50.2001190   6.1365026  46.6170692  50.6030989
   4.9579370  47.5481892  50.7901430  70.2685690  52.9304981  37.9192734
  70.2705669  52.3487139  37.1591711  69.5519257  53.5422659  37.7507591
  22.0718956  49.6970987  55.6666994  22.2209573  49.5516014  54.7324371
  21.9660687  50.6449842  55.7475901  25.0832248  69.7111082  55.2429152
  24.8453569  69.7070122  54.3157530  24.2676449  69.5065737  55.7003307
  62.3726988  11.2652755   8.8285869  61.7531824  11.1379826   9.5470768
  63.2284689  11.3091660   9.2551607  59.8372078  56.1715126  60.8746099
  60.1640177  56.1062384  59.9772978  59.4378328  57.0401525  60.9214640
  83.1179523  39.2664552  59.4482899  83.4636307  40.1583290  59.4121170
  82.2774601  39.3533969  59.8980045  84.5661449  55.0057554  60.7400227
  85.3790951  55.4881382  60.5894947  84.8383045  54.0898943  60.7979155
  17.9912341  79.6857595  33.0295777  17.4552441  80.0742912  32.3382115
  18.1775737  80.4118729  33.6247826  11.2377107  74.0497780  37.0691109
  11.6723871  74.1647196  36.2240791  11.8998837  74.2968607  37.7146411
  70.3441238  59.0563154  43.6980581  70.1901865  58.1647682  43.3855247
  69.7105980  59.1747665  44.4057608   8.0157232  37.9542136  36.3324213
   7.3409414  38.6330867  36.3267016   7.5282025  37.1323991  36.3887572
  81.9905186  62.4027491  35.9467435  81.8279076  61.9379950  35.1258945
  81.3019562  62.0954943  36.5364099  28.6608124  78.5058308  42.8681612
  27.9712677  78.5134649  43.5320187  28.4674454  77.7376652  42.3307991
  16.2310350  77.0629740  36.3523602  16.7307961  77.8718662  36.4626479
  15.3253829  77.3143911  36.5335059   2.0379221  64.4097376  32.6500988
   2.7256060  64.1893196  33.2783818   1.2758331  63.9108515  32.9443169
  72.4474525  52.5823593  14.9206007  72.7096796  52.7230835  14.0108383
  72.0965004  51.6919136  14.9337077   2.9919285  51.1755705  29.6433043
   2.1644005  50.9821272  30.0837708   2.8305826  51.9979668  29.1808558
  26.4689970  77.2936487  30.2602601  26.8930244  76.4391756  30.3396797
  25.5439091  77.0900774  30.1224113   0.7672095  78.9393234  33.9100170
   0.9116141  79.1196346  32.9811096   1.2854132  78.1537580  34.0848947
  30.9236455   3.3091792  39.0671015  31.4838791   2.6006922  39.3839860
  30.6622839   3.7800398  39.8584390  76.1365128  57.9379559  12.4178910
  76.0651350  57.7870083  13.3604157  76.5178633  58.8127613  12.3436308
   4.8303548  76.8777132  58.8427734   5.7682121  76.9201994  58.6560869
   4.4133535  77.2281599  58.0556726   7.2512430  76.6594648  68.2847929
   7.9738879  76.9960451  68.8146353   7.2666299  77.1944952  67.4912357
   5.6070024  35.4671288   9.5903522   6.4390445  35.9276533   9.4814730
   5.1937127  35.5121589   8.7281477   9.1266394  45.9520769  31.3528657
   8.5804898  45.2105808  31.6138935   9.5353210  46.2467527  32.1667314
  67.8933382  67.4901152  15.4955745  68.8015079  67.6954699  15.2735639
  67.9587603  66.8623781  16.2152231  21.5560246  75.3431702  20.2080441
  21.7666316  74.9932623  19.3423402  22.2890782  75.0722218  20.7607198
   3.4352061  33.7726545  22.2460008   3.9334211  33.2155728  22.8440595
   3.4378076  34.6342278  22.6630354   6.0623735  63.0468941  48.3006811
   6.5698177  62.7692652  47.5380135   5.4768521  62.3110914  48.4795523
   7.3392951  73.0846167  41.0439110   7.7411020  72.7639723  40.2364635
   6.4156055  73.2015562  40.8217573   3.4339470  44.1142511  52.2100925
   2.9469666  44.0571117  51.3880110   2.8251198  44.5297813  52.8207445
  28.3163285   6.6574121  47.9247856  28.3074427   5.9329444  47.2992468
  28.8485527   6.3381302  48.6535025   3.2898903  71.3727617  35.4078150
   3.1621951  71.9531727  34.6574497   4.1827577  71.0430288  35.3063488
  12.0705068  63.1754780  28.7552047  11.2887883  63.5888147  28.3887339
  11.9792652  62.2494078  28.5309267  67.1570063  59.5341063  52.4388742
  67.6854563  59.2949343  53.2002974  67.6919937  59.2803717  51.6867828
  83.2735157  45.2041245  42.8629732  83.2754135  45.9226513  43.4953880
  84.1431713  44.8122978  42.9430246  15.8819234  74.9858046  42.3303318
  15.0326669  74.9833107  41.8887568  15.6752491  74.8086262  43.2480049
  18.0102944  59.6977186  58.5252523  17.6877761  60.4662800  58.9959240
  17.2194195  59.2624044  58.2070541  15.0760245  59.2957640  38.5296082
  14.9048603  59.7509098  39.3540931  15.1312876  58.3717108  38.7731266
  20.2569532  56.2016869  35.6551623  19.8749757  56.8149090  36.2830806
  21.1630464  56.0955381  35.9449172  27.6058531  63.2893848  63.8280869
  26.8603182  62.7633905  63.5387135  27.5782633  63.2387066  64.7835493
  19.9162376  10.5142164  36.8021727  18.9769256  10.4429519  36.6323328
  20.1474476   9.6852261  37.2211576   5.3163522  53.8739300  42.7982521
   5.9786123  53.5629845  43.4154654   5.0640762  54.7351122  43.1313467
   5.3382498  59.7710180  27.4174190   4.7259465  60.5004597  27.5135279
   6.2010252  60.1632833  27.5515056  74.7853184  70.9730148  29.3271494
  74.3936396  71.0134554  30.1996088  75.4509783  71.6608429  29.3313313
  36.6963673  15.7855475  48.1865406  36.5621448  16.1280072  49.0702438
  37.4417758  16.2815857  47.8480959  52.9983377  16.8938982   3.0200458
  52.7736473  16.4941144   2.1798559  53.5296869  17.6556230   2.7883673
  11.3331687  75.7568789  59.7130966  11.2507844  74.8032522  59.7072220
  12.2182870  75.9228230  59.3886566   3.3553427  34.6840978  25.2938628
   2.9915974  35.2638960  24.6247196   3.7317207  35.2762437  25.9449649
  25.1697564  56.9032431  54.0177727  26.0442805  56.7920971  53.6448336
  24.5790815  56.5493011  53.3528948   6.0367358  48.2164097  32.2718859
   5.6204432  48.9709425  31.8552184   6.1981177  47.6048517  31.5534258
  74.7568130  79.4030571  40.1655006  75.5990744  79.7549009  40.4536581
  74.7989988  78.4719563  40.3834629   2.3520812  58.7587738  27.7981615
   2.9923514  58.9701128  27.1187329   2.8262076  58.1911850  28.4058428
   7.4188274  57.7232552  51.7475939   8.1866503  57.8874350  51.2001228
   6.6756612  57.8133249  51.1510801  49.2961264   5.4483718  42.9383421
  48.7832880   4.7760558  43.3869123  48.9506865   6.2760377  43.2728148
   0.7830340  73.8294220  56.1298275   0.1620394  73.2861710  55.6445694
   0.6868401  73.5485554  57.0398235  84.6522903  55.0367308  42.1137190
  84.2932796  55.5027246  41.3586140  84.9001312  55.7289076  42.7266598
   9.0590584  41.3627386  51.2470961   9.4222361  40.8460999  51.9664145
   8.7045777  42.1452188  51.6693544  13.3838713  49.1349459  44.2296600
  12.8287888  48.3910370  44.4635725  12.7897334  49.8854256  44.2263842
  27.2332025  57.4864674  44.4169760  26.5957594  56.9396067  43.9578104
  27.0843625  58.3674812  44.0736198  47.0010281   2.7401596  40.6228495
  46.7354441   3.5499662  41.0586405  46.5549135   2.0480818  41.1109495
  72.8861284  60.2583885  52.5419044  73.2070112  59.9627352  51.6899347
  73.5745716  60.8371782  52.8694439  59.5160294  76.6180563  20.5738139
  59.1195059  75.7617760  20.7343960  59.2504597  76.8414831  19.6817458
  26.9640326  50.5124807  43.4210730  26.2531757  50.1000929  42.9303074
  27.6108360  49.8163509  43.5363054  24.7918177  51.1295462  60.0521898
  25.5273294  50.6245089  60.3988743  24.5465779  50.6736469  59.2470551
  75.2906322  56.3589191  34.4623160  74.7299051  57.1329784  34.5137405
  75.8801317  56.5384293  33.7298560   9.4855499  66.9899988  48.3737278
   8.9022535  66.3285303  48.0016279   9.9879402  67.3140860  47.6261950
  13.6078334  80.5066204  29.0164256  12.7743542  80.4918194  29.4868779
  14.1017675  79.7722578  29.3810821  57.7506685  54.0448618   4.1883880
  58.5035181  54.1787148   3.6126024  57.9127693  54.6239328   4.9331251
  34.5534801  19.8338187  60.0001955  34.7158265  19.6765423  60.9303284
  34.0878439  19.0521669  59.7028160  19.4548750   6.6547287  56.2888861
  19.9200761   7.4077874  55.9245777  19.1619682   6.9485462  57.1515036
  18.6751032  60.1162195  52.3552418  18.2831430  59.2462111  52.2798538
  19.6185565  59.9545860  52.3563766  67.2018576  71.7909098  58.9504480
  67.7296114  71.4328766  59.6642542  67.3744965  72.7321243  58.9737225
  17.7115786  61.3070488  45.3377247  18.1003344  61.3669014  44.4650745
  17.1888733  62.1044588  45.4222775  29.7427154  56.4037800  17.8139532
  28.9403415  55.9882689  17.4980724  29.6202564  56.4721775  18.7608206
  84.0839767  49.2097425  17.0690477  84.2714787  49.0940380  18.0005455
  83.1282806  49.2111826  17.0154762  37.0867729  77.2346354  30.9234023
  36.9265103  76.2925386  30.8686185  36.9126797  77.5589848  30.0398183
  11.4949548  36.1303258  42.2868061  11.8621373  36.9471145  42.6248360
  10.5904698  36.3490558  42.0625448  75.2903366  74.6712971  46.7288351
  75.4324102  75.6100368  46.8505430  76.1571789  74.3228960  46.5204430
  82.0823097  53.5505342  53.9356565  81.3741875  53.9117050  53.4024143
  82.8222942  53.4767818  53.3329725  72.6567650  56.8160343  51.9295740
  72.9557991  57.6759768  52.2250509  72.9877043  56.2073994  52.5900841
   8.8474733  69.8919678   9.5840007   8.5373908  70.6814957  10.0275362
   8.5546416  69.9952316   8.6785632  80.0445271  50.1807356  21.7914081
  79.7003937  49.3301964  22.0641613  80.7169628  50.3864670  22.4408221
  26.6593814  50.3778076  32.8209782  26.7114234  50.1828289  31.8852925
  25.7861757  50.7515526  32.9395485  78.6542845  61.1349344  29.6119690
  79.1221571  60.5611038  29.0053058  77.7317715  61.0268927  29.3806076
   5.4968131  41.9339561  54.9820328   5.1040071  41.7600727  54.1266394
   6.4211494  41.7115593  54.8707962  18.0154002  54.0692663  33.0032849
  18.0071747  54.8895741  33.4964919  18.0175257  53.3864689  33.6741185
  77.0626783  47.4163532  46.6496706  77.3896074  47.8349209  45.8533335
  77.4573374  46.5443373  46.6412401   4.8029900  52.0009232  41.1500263
   4.0212247  51.6989660  41.6125154   5.0962394  52.7638865  41.6481447
  34.1178632  58.0825901  27.6088047  33.1948853  58.0423307  27.3583651
  34.1778159  58.8481712  28.1802225  76.5666914  55.5192423  37.6113391
  76.2017345  56.0883427  38.2889533  77.1429682  54.9204445  38.0862927
   4.4439739  39.6688461  30.7160497   3.5448390  39.4843483  30.4444790
   4.6269834  39.0197396  31.3953161   7.2388059  52.3087263  50.1633930
   8.0769396  51.8620062  50.2825689   6.5986836  51.6009951  50.0886154
  22.7992296  53.7361288  58.9658928  23.4578824  54.3395853  59.3097591
  22.6257801  53.1334591  59.6890354  18.5589325  62.7204847  40.4033661
  19.0127897  62.3820257  39.6315551  18.7901258  63.6489868  40.4291821
  14.9591029  38.6191010  55.4878139  15.2669799  38.9735746  56.3219547
  15.6326842  37.9888940  55.2321625  32.2363424  59.7122240  64.3608761
  32.1784329  58.7733126  64.5378542  31.4126277  59.9244690  63.9219284
  14.8003519  52.6817513  51.1951303  15.0297761  52.6845741  52.1244240
  15.5094194  52.1951056  50.7748508  80.3329372  53.9593410  13.0911374
  80.2097416  53.0181170  12.9680657  81.2579727  54.0520334  13.3190799
  16.3260555  59.2782450   8.3089775  15.9239292  59.1563845   7.4489337
  17.2457659  59.4636345   8.1192529  68.7730789  36.0751438  27.9016733
  69.3994808  36.4059258  28.5454416  68.3881998  36.8620062  27.5157404
  22.7072430  70.9348917  52.0885801  23.2062292  71.4328814  52.7360725
  22.0598412  71.5563011  51.7554903  37.7691650   3.3406574  42.0366096
  38.2454824   3.5468784  41.2323523  37.8609109   4.1252533  42.5771856
  26.6323590  54.6694088  35.2061248  25.8707142  54.7882605  34.6386671
  26.2872505  54.2243910  35.9801364  17.2227299  76.9672298  33.8642526
  17.6474905  77.8238678  33.8197827  16.8352175  76.9371557  34.7389865
  82.1915340  37.1609139  51.0433483  82.3963165  36.2881017  50.7079411
  83.0417728  37.5330687  51.2775278  83.4029770  27.0577765  10.9396946
  84.1135979  26.5521169  11.3340974  82.7737808  27.1812654  11.6503966
  17.2750282  47.4387598  32.1682072  17.1956408  48.2753086  32.6265931
  16.3848519  47.0871067  32.1556544   6.4280814  39.1664100  58.2601881
   7.2753555  38.7627029  58.4482813   6.0654432  38.6409402  57.5470209
  78.9846563  58.8874435  23.9172411  78.2465029  58.3236074  24.1484451
  78.8862610  59.6542835  24.4815993  20.2425385  69.2303419  20.9441566
  20.0393105  69.9189472  21.5772057  19.3885207  68.8877439  20.6805062
  39.5301962  60.6300735  54.5682621  40.1393414  59.9445248  54.2940426
  38.6630940  60.2462339  54.4377470  10.1732016  63.6506939  54.8805094
   9.4758850  63.7106705  54.2275286  10.3068876  62.7107620  55.0025129
  43.8621902  54.1016769  25.4047346  43.5540581  54.9771070  25.6390619
  44.0701914  53.6886740  26.2428236  36.2883496  62.4639702  63.3003473
  35.6658149  62.3021173  64.0092134  36.4669037  61.5970993  62.9358101
  23.1226563  44.9534893  37.6892734  22.8983712  45.1070166  38.6070728
  23.3769751  44.0312958  37.6558876  28.6720324  58.6934471  49.0398169
  29.0552449  57.9085732  48.6482096  28.0966139  59.0438557  48.3598661
  84.1666222  64.8952436  47.9204988  83.5492039  64.3366480  48.3927202
  84.4096756  64.3843269  47.1484089  17.2495055  62.7016449  51.6748524
  18.1633425  62.9506159  51.5364742  17.2930050  61.8034458  52.0028496
  74.8385334  37.7144504  21.7048073  74.4940758  38.3684707  22.3129463
  75.7863426  37.7412701  21.8358350  10.4518056  73.4380627  31.4993834
  10.7178521  74.3452978  31.3497853   9.6026987  73.3625698  31.0640097
  18.6548305  37.4816775  25.5112386  18.6726284  36.5246582  25.5165720
  17.7408826  37.7032447  25.3328013  21.1924028  49.4158840  59.2055798
  21.6373324  48.8147831  59.8030233  21.8158889  49.5491743  58.4916258
  85.1943874  51.2872696  13.9251423  85.0687981  50.3418303  13.8438904
  86.1148167  51.3865805  14.1684091  -0.1355165  50.4969120  27.8290176
   0.3181135  49.6630669  27.9521132   0.2756934  50.8812714  27.0548058
   4.6965644  38.0849099  47.1563339   5.0962311  37.3731732  47.6562595
   3.7743121  38.0688071  47.4121141  78.0678940  78.6938572  47.8022861
  78.4398937  79.3498325  48.3918190  77.2462225  78.4352303  48.2196617
  70.9650373  39.4717932  45.7078648  71.8941212  39.4947171  45.4787064
  70.5909204  38.8107538  45.1253748  20.7659221  59.4605732  16.9601929
  20.6630182  60.4082394  17.0471823  21.1459064  59.3397903  16.0899901
  85.6823921  62.8756094  40.6883287  85.7035732  63.7734604  40.3572035
  84.9188328  62.8509665  41.2650490   2.8500295  35.4122424  29.9985886
   2.3650265  35.1025510  30.7635021   2.3056576  36.1115432  29.6368289
  74.3462753  52.4160433  23.2084107  75.1344872  52.6728153  22.7298498
  74.6150112  52.4104738  24.1270971   1.8159078  35.8526969   8.2007533
   0.9696978  35.4381371   8.0325204   1.6923444  36.7647028   7.9376763
  37.0987678  64.1389227  47.7129889  37.3219061  63.8307333  48.5913134
  37.9374456  64.1805649  47.2535133  10.6943798  54.3763304  35.4608679
  10.6159878  54.2597914  34.5140266  10.1373959  55.1298428  35.6563711
  66.0482311  12.0496643   1.5227278  65.6431293  12.7041519   0.9537189
  65.4024792  11.3450253   1.5748852  40.0042439  62.7846289  34.4377756
  40.4840469  63.6113262  34.3868566  39.1947389  63.0055046  34.8983669
  26.4281178  44.8661947  40.1143646  25.9086680  45.2455330  40.8232450
  26.0595846  43.9917469  39.9888420  85.6519794  63.7476444  36.4869905
  86.2407017  63.0460548  36.2087560  84.9723816  63.3031702  36.9937706
  84.8127651  57.2091341  37.6729941  84.8373604  57.0576239  36.7281818
  84.5674896  56.3620186  38.0451035  26.7928743  53.1033134  42.6912117
  26.9573545  52.1962976  42.9490805  25.8412528  53.1587696  42.6041985
   1.5393381  41.5421629  27.6081491   0.9615074  42.2246361  27.9495835
   0.9563930  40.8064556  27.4206853  30.3940654  29.0900207  20.0706077
  29.5149374  28.7982750  19.8292518  30.5364609  28.7244582  20.9437156
  10.4874873  77.7818108  47.9280376   9.6425450  77.3574829  47.7788734
  10.9132624  77.2405720  48.5928726  40.0630236  76.7274237  45.7710838
  40.9663820  77.0425320  45.8008194  39.8375916  76.7339134  44.8408318
   2.8052863  81.1394501  34.4669604   3.6253411  80.7283211  34.7402930
   2.1402766  80.4661274  34.6105838  39.7825265  11.8927097  59.2187881
  39.4596863  11.0252070  59.4626045  39.9784684  12.3186159  60.0533199
  77.8271961  60.3852463  58.4215975  78.0519533  60.1011848  59.3076134
  78.5588789  60.0866365  57.8814983  56.5265036  41.9477320   3.0337355
  55.5991173  41.9656467   2.7973846  56.5591002  42.3412943   3.9056757
  22.7771783   1.9799641  29.2946339  23.5611939   2.2512524  28.8171911
  22.8783512   1.0343925  29.4036746  41.1403942   8.5289866  44.2602158
  41.6271019   9.3501866  44.3307447  41.1519337   8.1668752  45.1462030
  28.6867571  77.0107555  53.3734560  28.4984326  77.3581123  54.2452955
  28.2081532  76.1825991  53.3370638   5.4652381  59.2875862  30.7049870
   4.8454955  58.6284065  30.3925228   4.9142265  60.0039291  31.0203767
  84.0328884   9.3894261  52.7687311  83.4484196   9.5605445  53.5072088
  83.4549713   9.3673933  52.0060015  14.6472943  76.0960150  64.1495943
  13.7510908  75.8328629  63.9403057  15.1969540  75.4989529  63.6420298
  12.2872388  62.3029184  37.7826738  11.9295371  61.7365646  38.4664321
  12.5507390  63.0988550  38.2444954  47.9929209   6.5399808  27.9770470
  47.0657301   6.3072973  28.0260992  48.0824852   7.2918320  28.5626507
  40.1924086  64.4146872  36.7767549  39.2788553  64.2087889  36.5786171
  40.3030682  64.1565800  37.6918340  11.4285445  74.8829889  56.2289619
  11.3481915  74.5922756  55.3205252  12.3719871  74.9475098  56.3772345
  41.8027830  72.6514626  15.2686930  41.6699505  73.2929659  15.9665930
  41.6829538  73.1491756  14.4598937  23.6095524  77.7987623  47.6382637
  24.5244646  77.9507828  47.8750229  23.6383104  77.0550537  47.0363474
  26.4109874  62.8400803  42.7122641  27.2526693  62.6707792  43.1355143
  25.7600713  62.6396036  43.3848333  31.3822746  76.5385056  49.5912313
  31.9418788  76.1782265  48.9032841  30.6650066  76.9617367  49.1193914
  43.3557701  75.7631445  19.3664885  43.9982891  75.3926373  19.9715722
  42.9653358  76.4921188  19.8485553  81.4878941  62.1240377  70.1023722
  81.4313889  63.0674458  70.2540779  82.3101044  62.0067883  69.6264982
  36.2860751  79.1210842  41.5283966  35.8888745  78.2510757  41.4890289
  36.7529941  79.1336203  42.3638964  21.1265707  71.0007715  45.1843405
  21.5092373  70.1557493  44.9482632  21.5992093  71.6362953  44.6467924
  35.2457595  62.4822330  33.7193632  35.1361489  62.5084257  34.6699071
  34.5226645  63.0098391  33.3802533  57.7522469  37.9671383  21.3573027
  58.4558916  37.3215151  21.4227962  56.9485855  37.4560523  21.4529490
  60.0372458   9.8743087  45.7077980  59.9036741   9.5810449  44.8064709
  60.3690529  10.7680690  45.6221819  24.8943877  49.7341776  41.8565130
  24.0028501  49.4477558  42.0549059  24.7810555  50.5524445  41.3729620
   2.8073499  40.7454252  33.6349726   3.3515173  40.0555992  33.2551622
   3.4000862  41.2281799  34.2110300  69.6453714   1.9443725  34.4550085
  70.5145884   2.2143628  34.7513175  69.6363163   2.1502522  33.5202551
  26.4242578  60.5157089  38.0786109  26.5453100  61.0921383  38.8331389
  25.8298993  60.9966469  37.5027037  38.6033106  14.2502034  29.2726922
  38.9527559  13.6913610  29.9668217  37.6536775  14.1513169  29.3408680
  26.1896038  17.1915495  66.5232468  26.3006091  17.2960377  67.4682283
  25.6317544  17.9252839  66.2650394  78.3068371  75.9731817  67.4639988
  78.9898920  76.4601517  67.9250050  77.5502205  76.5594769  67.4684286
  10.7389069  61.6950655  43.4693575  10.4770446  61.1930895  44.2411566
  11.4912283  62.2094107  43.7620926  40.0764990  78.0805826  25.5035400
  39.7494102  77.5272894  24.7942352  40.9684753  77.7695513  25.6580520
  47.2773123   1.0896153  65.9243870  46.9705820   0.4613620  66.5781832
  46.7837429   1.8885063  66.1098528  13.9219069  67.4724722  56.7964411
  13.9459598  67.8790045  57.6626873  13.5824537  68.1570530  56.2199354
  33.5080385  78.7260103  29.0975738  33.5657239  78.2502079  29.9261379
  33.0344105  79.5289183  29.3149233  32.0692229  10.4713535  61.7146111
  31.1234546  10.3708422  61.6066599  32.4485517   9.9020636  61.0450983
   4.2361227  72.2778463  41.9210100   4.7953656  71.6095924  41.5248871
   3.3608067  72.0888186  41.5828943  21.3021493  12.0091546  38.8306308
  20.8766103  11.4809251  38.1552625  22.0667529  11.4951801  39.0903258
  18.8030016  72.9312086  38.1117630  19.0035498  72.0160484  38.3079600
  18.3208525  73.2404757  38.8786507  37.6965141  79.9267292  57.4498749
  38.2743573  79.3971968  57.9993486  38.2865644  80.5162239  56.9802284
  14.1291535   7.5932014  52.4473619  14.3145311   7.6301861  53.3857107
  13.3636689   7.0228690  52.3767424  17.7686882  41.9614887  46.3883781
  17.3276556  42.2263336  45.5811739  17.1670413  42.2208548  47.0862150
  82.9499245  69.7967005  52.4030972  82.2186375  69.1797733  52.4322367
  82.5376606  70.6509256  52.2743893  51.9492197  16.5048659  46.5807104
  52.2482347  15.9171855  45.8868408  51.0017824  16.5601277  46.4560223
  14.8148954  76.5352297  10.5406272  15.7483065  76.7423773  10.4952025
  14.3915176  77.3751450  10.7181740   9.8962957  67.4880457  60.7596397
   9.1991490  67.3680830  60.1147938   9.7398573  66.8047142  61.4114141
  40.9749269  69.3743801  56.8162870  40.8509827  68.8883162  56.0010529
  40.5377054  68.8423920  57.4811649  69.9100065  48.8153076  45.4914761
  70.0107431  49.2726088  44.6566343  69.8155022  49.5148993  46.1379051
  10.3401649  45.3253603  39.8617268   9.6423477  45.9576368  39.6899366
  10.3038228  44.7211790  39.1201925  11.3924360  71.1335659  26.9346309
  11.8483150  70.7108021  26.2068415  10.9558105  70.4156828  27.3931479
  14.4020438  55.5664873  45.1692438  13.8532782  55.5331850  44.3856764
  14.5457470  54.6487474  45.4001951  15.3525984  68.8547754  43.5117054
  16.1559916  69.1628790  43.0923414  14.7932422  68.5802174  42.7850866
  70.6667471  14.3233597   6.4017719  71.5674448  14.6187091   6.5349835
  70.1342726  15.1053941   6.5471244  39.3990803  15.7142961  32.9058981
  38.8489866  15.9819841  32.1697092  39.5117331  14.7708309  32.7900791
  64.6119690   5.6922197  39.2178607  65.2218008   6.3638389  39.5232534
  65.1734877   4.9961129  38.8767433  40.5362606   3.4616858  25.8080959
  40.2681732   2.7298334  26.3637519  40.7603073   4.1599542  26.4232850
  30.9448314  65.9278107   1.0180373  31.5682197  66.3273573   0.4114247
  30.1842141  65.7179880   0.4761232  80.1867580  79.7171783  29.2367983
  79.6008301  79.3972778  28.5508084  80.7147217  78.9552307  29.4753718
   7.3059851  72.0600414  51.2269258   7.0775551  71.4303255  51.9106722
   6.6146582  72.7207375  51.2691498  25.8888340  44.4055843  26.7286849
  26.6539812  44.9771643  26.6647887  25.9540749  44.0145493  27.5999284
  26.1003304  61.3665485  13.2223403  25.3445840  61.9527817  13.2598555
  26.7576551  61.8546009  12.7263963  16.8040395  76.7043638  49.0930748
  17.1367812  75.8085871  49.0374136  17.0076132  77.0888948  48.2404757
  84.4019127  53.7689686  17.4130499  84.2060375  53.8498402  18.3464980
  84.7400951  52.8788280  17.3155296  77.6474285   5.8321059  19.7316563
  78.2342243   6.4958107  19.3691635  76.9576931   5.7376909  19.0747106
  36.9368911   2.2577654  47.9121685  36.4862823   2.3368753  47.0713806
  36.2460423   2.0275760  48.5334349  73.9332724   5.7578951  22.7077842
  73.3684826   6.4281100  22.3230052  73.4505939   4.9400848  22.5876236
  49.9496889  16.5458429  33.2388854  50.4994345  16.3090813  33.9858484
  50.0126553  17.4996102  33.1879330  43.2590914  -0.0476539  60.0101757
  42.6241255   0.2794365  59.3729448  43.9795017   0.5816374  59.9751139
  21.5646362  62.0256758  60.7579994  21.2186170  61.9858217  59.8664188
  21.3726377  62.9168606  61.0498142  56.6903591  15.8620393  33.6118078
  57.5514317  15.5860245  33.9258242  56.7893648  16.7969775  33.4320283
  21.6632438  69.6783257  54.5740080  21.7173100  68.7243700  54.5167589
  22.0407605  69.8887920  55.4280710  75.2756882  66.7457771  45.4836655
  75.9790087  66.5023994  44.8817110  74.4745731  66.4622688  45.0431347
  14.6875322  48.8209057  51.6845179  14.7475147  48.9879751  50.7439184
  14.0712678  48.0923319  51.7595482   0.4331465  58.7150097  44.3803740
  -0.2900658  58.1195545  44.1838264   0.9227991  58.2757807  45.0757551
   2.9253003  60.4906130  31.3420153   2.1133378  60.9762001  31.1965680
   3.5427624  60.8622646  30.7120562  29.2260742  60.6925678  42.9665661
  28.6704421  60.9756327  43.6927748  30.0204849  61.2194633  43.0533123
  84.7329044  69.4563007  47.9634476  84.3750572  69.5368767  47.0793152
  85.6612206  69.6685028  47.8663683  18.3367217  79.2890882  53.6038399
  17.4900460  79.0849829  53.2067108  18.9643848  79.2052984  52.8860331
   1.0502297  66.6856956  51.1213255   0.4097352  66.9880867  50.4774618
   1.5154606  65.9746408  50.6806469  10.3829968  74.6408749  50.3322601
  10.9028816  74.8571920  49.5582104   9.5147383  74.9976492  50.1449919
   8.9003199  75.0654793  41.8848324   9.4788861  75.1717854  41.1297178
   8.3175266  74.3464661  41.6406822  68.3233547   7.9778171  59.0316010
  68.5670710   8.4914953  58.2615566  68.4640694   8.5709912  59.7695541
  25.1821852  72.3091602  46.9766474  25.9188342  71.9391489  46.4901543
  24.7428489  71.5500546  47.3600101  33.0456209  75.9865761  57.9943991
  32.9421520  75.7790565  58.9230871  32.7131820  76.8802309  57.9101849
  41.1560440   3.9927971  51.7461348  41.5718746   4.0313345  52.6074266
  40.7158232   4.8378265  51.6546774  50.0454760  10.9603536  51.0348463
  49.6023750  11.8010437  51.1494493  50.3517008  10.7294929  51.9118643
  72.0796537   3.3254158  41.4897442  72.3555946   4.2263085  41.6585112
  72.6351118   2.7939624  42.0600605   1.2898538  32.2491121   3.1157547
   1.3217187  32.8517365   2.3727465   0.6957036  32.6679158   3.7385067
  18.4160519  43.7588501  33.3626747  18.4256566  44.4792843  32.7325106
  19.3137705  43.7168694  33.6921763  22.2590566  50.3225422  40.1549530
  22.9433680  50.9826803  40.0446463  22.1833324  50.2121162  41.1027384
  13.8333869  76.1253834  29.5368433  12.9694009  75.9914446  29.1472030
  14.3616724  75.4003048  29.2030740  11.8109167  79.4743490  33.9924836
  12.7010298  79.2182779  34.2340565  11.9279480  80.2139187  33.3961844
  21.9986558  48.4928560  36.1752558  21.3210940  48.6775112  35.5248380
  22.8045702  48.4118271  35.6651878  82.7379322  39.8868275   1.1645581
  81.9541836  40.4362535   1.1745882  82.4063778  38.9947343   1.2669134
  82.0988750  40.3623772  42.9629278  81.8015194  39.4525361  42.9637241
  82.8290558  40.3762579  43.5816956  73.1824732  70.6624937  64.8008204
  73.8645601  69.9909449  64.7969007  73.4747696  71.2969446  65.4552412
  37.1013451  69.7309446  37.9323626  36.4114571  70.0251818  38.5270977
  37.8771782  69.6496248  38.4870744  54.2821264  57.8769588  15.3506434
  53.8413477  57.6989222  16.1814559  54.1481400  57.0827532  14.8334217
  63.3703470   8.9174819  34.1105270  64.2619228   8.6240292  33.9228773
  63.1086254   9.4035894  33.3285856  53.3308077   9.4547319  22.0913363
  52.8367519  10.0482917  21.5258026  52.7581787   9.3094289  22.8444743
  49.3092966  69.0680552  28.6295223  49.3641186  69.9168777  29.0685248
  48.6150503  68.6019039  29.0953112  57.5479794  14.2299950  40.9938383
  57.2404242  13.9745808  40.1241255  58.0557919  13.4780514  41.2986946
  14.6475589  77.5951099  41.3860703  14.0915871  77.9474592  42.0810366
  15.4424143  77.3098469  41.8366909  49.0763235   7.3333931  31.4203024
  48.5433435   6.6022646  31.7327356  48.5327959   7.7601439  30.7579589
  14.3052447  52.8463364  44.2244101  14.0199077  52.6292467  43.3368921
  15.2612507  52.8310823  44.1791010  31.6830325   0.4757784  39.6098185
  32.5615621   0.1191565  39.4785261  31.4086056   0.1299263  40.4591179
  16.1460459  59.2882538  46.9343281  16.7309868  59.8102760  46.3851738
  16.7309153  58.8223028  47.5318623   2.8049719  42.3038387  47.6151133
   3.4827635  41.6549921  47.4258327   3.2418782  43.1475210  47.4987364
   3.6293256  62.4149466  39.7279453   3.9191842  61.9345665  40.5034781
   3.7340671  63.3366251  39.9640870  71.5315819  62.0145941  30.1839685
  71.9459391  61.7063904  29.3780208  70.6334019  61.6878414  30.1316094
  10.8159614  50.2724314  54.4038439  11.5171146  49.7770023  54.8271275
  11.2672138  50.8397388  53.7787294  11.2709522  79.6572733  36.7669845
  12.1012640  79.1984749  36.8947387  11.1210823  79.6226692  35.8222246
  59.4465256  68.4601545  51.9163752  60.2962780  68.8838768  51.7955065
  58.9218092  68.7595892  51.1739159  24.1761613  80.4078579  32.1288657
  24.4167113  79.5854568  32.5555134  24.9152899  80.9915352  32.2998643
  25.1550221  67.1525860  31.3683105  24.8097634  66.7988634  30.5486083
  24.7578788  66.6098690  32.0494676  20.6923008  54.0573978  48.9060450
  20.8753657  53.1491852  48.6654806  20.2110887  53.9943027  49.7310829
  31.9812608  68.4113741  52.1579981  31.2000990  68.5226774  51.6161203
  31.6420817  68.2856226  53.0442095  41.5737963  57.8151464  56.3816690
  42.3480129  58.1589842  56.8273163  41.3956165  56.9826126  56.8191242
  30.4490423   4.4865829  64.0117836  29.6861553   5.0433910  64.1673517
  30.7731152   4.2743039  64.8870850  79.0067291  61.6387796  51.9570684
  78.1126451  61.3160706  51.8443441  79.4498110  61.4066935  51.1409521
  36.0649323  77.4757719  44.9993610  36.7394543  77.8609657  44.4400072
  35.4621148  77.0505142  44.3894434  13.7021959  73.1278992  30.4818010
  14.4189715  73.1796932  31.1140823  13.4871256  72.1961403  30.4393458
  24.9334502  69.0237951  43.6651564  25.4676461  69.7946215  43.4735966
  25.0799060  68.4399271  42.9209280  15.3560328  65.7272148  40.0008154
  15.3846467  66.0173178  40.9125471  15.4285192  66.5337515  39.4904470
  60.2408947  48.8961175  -0.3245967  59.9092211  49.7464999  -0.0363725
  60.0343146  48.3015314   0.3965289   4.8354599  50.4054976  31.3530159
   5.4922915  51.1014128  31.3304162   4.1920751  50.6618547  30.6922817
  29.2438936  76.6631126  19.8499215  29.8823762  76.9249344  20.5132627
  29.5589972  77.0672989  19.0414798  85.8452415  48.1967306  31.6835260
  85.0652504  48.3880472  31.1627293  85.7141781  48.6818123  32.4982333
  35.4951406  71.7535925  15.5097222  35.3250623  70.8264160  15.6759989
  36.4303041  71.7933941  15.3094327  75.1520777  68.7099218  39.7859955
  75.0327682  68.4318018  40.6940937  74.5226097  68.1861019  39.2904019
  33.9059496  65.1550055  37.7908278  33.0357289  65.3826380  38.1181335
  34.4597793  65.8911133  38.0509281   9.0405649  73.0913544  38.9861345
   9.3083322  73.9718676  38.7230277   9.0343803  72.5893402  38.1711650
  34.6774364  78.5715675  37.1808505  34.5790148  78.7023354  36.2377453
  35.4116058  77.9628897  37.2629285  26.2946963  50.2309513  29.9234462
  27.0338559  49.9185658  29.4016385  25.5922365  49.6067238  29.7414494
  32.8153396   4.9477035  36.9393659  33.2722712   5.4421461  37.6197863
  32.2593546   4.3351507  37.4209189  18.3598971  56.4380693  58.3904028
  17.8350830  56.5797901  57.6025438  18.3332622  55.4913092  58.5288334
  19.1695380  80.4023933  44.4239712  18.3903670  80.9579086  44.4467878
  19.6178246  80.5845356  45.2498627  29.2178011  51.9005442  57.2848225
  29.5628762  51.5654325  58.1123829  28.8831472  51.1255789  56.8335199
  13.3783853  75.5153513  19.2414308  13.0882812  74.6203756  19.4177711
  12.9179442  75.7627678  18.4395516  81.1969090  67.8869963  42.5391293
  80.9346676  67.2077799  41.9177341  82.1296692  67.7300644  42.6859617
   1.2632313  69.9717379  50.0635529   1.5915088  69.9222231  49.1657686
   0.3172639  70.0815058  49.9669647  31.7691875  75.5920076  12.9660833
  32.5749087  76.1064434  12.9170728  31.4064574  75.7965803  13.8279474
  11.5226495  75.1102161  47.7480364  11.2761140  74.1933298  47.6265001
  12.0940137  75.3050900  47.0052052   1.5741631  76.3860464  58.8200712
   1.2830371  77.0231724  59.4724131   1.2114806  76.7061758  57.9941082
  82.9929161  26.9452929   5.9470195  82.1285534  26.6405892   6.2231994
  83.5619068  26.7610288   6.6943681  53.2494974   3.2057095  30.2445221
  52.3151016   3.4064180  30.1910925  53.6180639   3.5644013  29.4372225
  31.7291880  66.9690990  61.4675999  32.1093273  67.3074627  60.6568956
  31.3724399  67.7418232  61.9056177  37.0240593  79.6286821  20.2056527
  37.0626283  79.1136122  19.3997705  37.9284573  79.6523666  20.5182815
  30.4233432  57.9913044  58.3400917  30.2641821  58.9175940  58.1587601
  30.6912303  57.9696703  59.2587852  11.7180896  54.0768909  62.4945593
  11.4043736  54.6161890  63.2204866  11.0410535  53.4097004  62.3818159
   6.2710732  58.9251423  22.2630405   6.6095805  58.0589151  22.0365572
   6.9303489  59.5343399  21.9306779  40.5640936  74.5517635  39.4963670
  39.7348785  74.7799540  39.9165630  40.5331945  74.9955225  38.6488080
  14.7271931  77.4651480  26.7570567  15.2154064  76.6857338  27.0223713
  14.0999544  77.6076984  27.4659157  20.2858543  58.7849569  42.2673178
  20.8430004  59.4533062  42.6662302  20.1817369  58.1215811  42.9494619
  11.2648153  79.3338966  51.3444710  11.4002466  78.4060478  51.5367889
  11.4054525  79.7751474  52.1821737  44.0539169   4.0618387  63.2898474
  43.7091494   3.3515295  63.8309813  43.3108425   4.6529222  63.1686306
  68.5435057  25.3286862   4.3475786  67.5983572  25.2754259   4.4893080
  68.9013624  25.5621171   5.2041304  12.1089971  44.9694824  58.4142876
  11.3409042  44.4182873  58.5641193  12.1177793  45.1160669  57.4684191
  19.8187113  68.9778090  57.2626352  19.4847012  68.0811882  57.2354031
  20.7277679  68.9036798  56.9721937  61.3340807  15.3254187  12.2868609
  61.3228893  14.5144546  11.7784870  62.1190548  15.7845557  11.9881260
  25.6731343   8.8045430  36.3068962  25.6624222   7.9194736  35.9425211
  25.6489682   8.6736262  37.2547936  12.4101222  53.3435440  45.9610319
  13.0866396  52.9304123  45.4244900  11.8773866  53.8365269  45.3370190
  40.1046371  55.0823307  39.4895148  40.7357979  54.8356724  40.1655531
  39.9567509  56.0175896  39.6297002  56.6722155  17.8813112   1.1943176
  56.7935514  18.8137305   1.3734944  56.7307186  17.8109157   0.2415041
  40.6438351  73.6619759  62.8658915  39.8881292  73.2131147  62.4868631
  40.3077316  74.5200396  63.1247187  53.7273932  14.2861915  45.0865698
  53.9371300  13.3577812  45.1880503  54.0363407  14.5068777  44.2078876
  40.5661917  13.0727088  65.1090908  40.8612013  13.9359868  64.8193407
  41.3661861  12.6275313  65.3884792  28.5586357  80.0282574  30.0904202
  28.2832837  79.1764688  29.7514963  29.3533707  79.8416328  30.5902171
  13.6711299  65.9200430  42.8908730  14.2690027  65.7463932  43.6179399
  13.5020208  65.0587988  42.5089121  39.0556526  58.1725168  35.1404119
  39.2783499  58.9240742  35.6897712  39.5547032  57.4462986  35.5142951
  28.6471176  60.0825357  40.5522346  28.0560374  59.3462515  40.7095289
  28.9110255  60.3688526  41.4266539  82.3501492  68.9095783  56.6017675
  81.6424751  68.5231447  57.1176195  82.7320290  68.1708241  56.1278105
  23.7123847  63.2036209  48.5568094  24.2744970  63.6104870  47.8974771
  24.1249204  62.3583889  48.7346506  16.3393903  69.2418909  39.1321874
  16.0809243  70.1222992  39.4047713  15.5431700  68.8630724  38.7596798
  65.2481699   7.7188665   8.0184644  64.3440819   7.8011376   7.7150100
  65.6395483   7.0711833   7.4323237  30.8366823  67.1142912  32.6034784
  30.6568289  66.7882347  31.7216802  30.6797218  68.0568409  32.5469613
  13.7388599  68.4972429  41.2940979  12.9668856  68.8882780  40.8849764
  13.4456885  67.6324129  41.5810633   6.4989895  32.5488925  16.2253225
   6.5430123  33.4691072  16.4851320   6.0235333  32.5570440  15.3945959
  27.8807306  79.9995041  33.9121175  28.6661983  80.4376125  33.5845041
  27.2598553  80.7099533  34.0734005  14.5179760  78.3973551  59.4866896
  14.6645594  79.2621803  59.8698664  15.1896107  78.3185816  58.8092422
  18.4605289  69.9297714  32.0210910  17.8545070  69.1909075  31.9658947
  19.3081665  69.5636797  31.7686653  58.7550974  33.4990215  24.6401620
  58.9851046  33.9665294  25.4431343  59.0339470  34.0829277  23.9348054
  49.8488092  75.4708481  43.8327646  49.0649748  75.3557777  43.2955551
  49.6306801  76.1918497  44.4233608  26.3087106  77.3624182  48.0802679
  26.1219168  76.5997696  48.6277246  26.9397998  77.8727388  48.5877371
  21.3069582  79.9350595  28.8229346  20.7007241  80.3056431  29.4643211
  21.1202836  80.4113007  28.0138755  77.9270554  10.8369482  41.3988352
  77.9767466   9.9807471  40.9737682  77.0177841  10.9076571  41.6894531
  58.9502573   4.5281380  50.9608698  59.7086191   4.3100518  51.5026808
  58.2019186   4.1780609  51.4442587  14.9613476  63.8086843  60.9899092
  14.3662846  64.5466852  61.1221552  14.8132753  63.5411835  60.0828505
  44.4646454  65.7719469  57.1064281  45.2486992  65.9305954  56.5807724
  43.9580011  65.1401329  56.5961838  45.3353310  11.2347353  46.0529327
  46.1856174  11.5342426  45.7311535  45.1333570  11.8237257  46.7799282
  54.6602440   0.9497201  33.2843232  54.1500092   1.3794994  33.9707494
  55.0976610   1.6673446  32.8261614  30.2008080  51.6626835  45.0801849
  30.2421689  50.8144903  44.6384907  30.0778413  52.2954607  44.3725824
  30.9131956  69.3797255  44.0900517  30.3074002  69.7486305  43.4472799
  31.0592484  70.0889206  44.7161055  36.7457676  57.0802927  37.3170018
  36.6458201  58.0063486  37.0964026  37.1604156  56.6937494  36.5457177
  48.6633635  80.5250549  53.0058336  49.4763565  80.0256920  53.0827808
  48.4038305  80.4205608  52.0904350  22.2138238  53.2107639  41.0972404
  22.9406261  52.8974342  40.5588961  21.9946885  54.0667200  40.7290649
  44.8698854  76.7553616  21.6671300  45.3894472  77.0139647  20.9059405
  44.7017479  77.5750160  22.1320200  56.1914444  57.1812534  22.3394966
  55.7908392  57.1430874  23.2079959  55.4842615  56.9456673  21.7389774
  39.7867227  68.5755920  46.3894415  40.4855633  68.0466652  46.7742729
  39.7543001  69.3622637  46.9338036  30.6688380  79.3929482  31.4214444
  31.2842131  80.0742912  31.1506653  30.8198166  79.2936754  32.3614359
  51.2165928  13.8939500  29.1747904  50.4816580  14.1308069  29.7404742
  51.6687346  14.7214711  29.0104389  27.3389721  74.8161411  27.1463895
  27.5312972  73.8804770  27.2078228  26.5934896  74.9464130  27.7324915
  35.7408714  60.4742861  17.3946750  35.5339122  60.9829140  16.6106486
  36.6538072  60.2121544  17.2760487  27.0880723  77.8623056  45.1797915
  27.0405054  78.1374311  46.0953617  26.1743736  77.7828884  44.9057865
  57.4182606   1.2370054  36.4708519  58.0419111   1.3702875  37.1846628
  57.1324396   2.1194643  36.2346196  31.3061595  57.7525902  40.2587080
  31.6142464  58.4482956  40.8394909  30.6933951  58.1886911  39.6666193
  19.1878271  71.0637188  63.4636211  19.3557417  70.1375961  63.2894611
  18.7216079  71.3728094  62.6868725  70.7412481  78.6927223  32.4979734
  69.8007059  78.6950779  32.3201990  70.9839439  79.6184731  32.5158477
  45.7798004  12.6430964  31.8005824  46.4253283  13.3290136  31.9710064
  45.1697159  13.0378258  31.1775136  49.0373707  16.4840329  51.5585613
  48.2487154  17.0236301  51.5029669  49.1011667  16.2477458  52.4839449
  11.3496172  57.1178198   5.6643140  10.4390669  56.8227148   5.6577748
  11.8123734  56.4788723   5.1222461  43.1567430  77.6290369  53.8017368
  43.9876842  77.1639538  53.8989973  42.9029560  77.4781418  52.8912115
  66.9389582  18.6646819  52.3975229  67.8385544  18.6147606  52.0743084
  67.0304871  18.8176119  53.3379841  20.9646106  66.2891912  22.9677534
  20.3774142  66.9486046  23.3373570  20.5596566  65.4526186  23.1966376
  30.2482152  55.4587507  41.3575792  30.1310658  55.0233603  40.5132151
  30.3523421  56.3844299  41.1373329  39.2740965  60.2813435  36.9831371
  38.3506083  60.1170683  37.1739650  39.2735267  61.0956144  36.4799500
  80.1066589  14.0002334  28.5576534  80.8571339  13.6435342  29.0328264
  79.3710089  13.9000356  29.1618156  49.1615820  23.0626893  18.9909410
  50.0544834  22.9909897  19.3283033  48.8851547  22.1570921  18.8505340
  32.6524663  79.5307207  38.6906457  33.3944368  79.0524054  38.3206081
  31.9641972  79.4535303  38.0299187  25.5835056  74.7327280  50.6892252
  26.0106635  74.0238762  51.1701584  26.2013960  74.9562550  49.9931812
   7.1903521   2.5100449  58.0371904   7.7777046   1.7775357  57.8509712
   7.7446854   3.1563273  58.4745312  77.1279907   7.3489898  40.6671524
  76.6072893   8.0519181  40.2785730  76.7058039   7.1751696  41.5084505
  67.2821712  17.5748301  18.0627227  67.4305201  18.4803271  18.3352983
  66.3934422  17.3781002  18.3588564  37.8367686  71.4840031   5.4273736
  38.4108758  70.9318733   4.8965392  37.0288420  70.9777260   5.5120575
  72.6187372   5.2145940  60.6602287  73.4349632   5.1674706  61.1580086
  72.8916693   5.1442921  59.7454643  16.6496181  33.1751204  69.7700882
  17.0016444  32.3379540  70.0725174  15.8710003  33.3161402  70.3086948
  11.3290191  29.3831444  60.6294060  11.6260111  29.5958805  59.7446632
  12.0374048  29.6838260  61.1986256   6.4966756  39.0284872  28.9731455
   7.3177069  38.7943506  29.4059491   5.8537167  39.0623450  29.6814466
   0.5226008  10.5286777  33.1614494  -0.3592952  10.8952355  33.0972099
   0.8030572  10.4187512  32.2528839   9.7222352  17.8853464  40.3344536
   9.1868138  17.4507463  39.6706152  10.3248572  18.4352398  39.8337555
  14.2182863  11.5912938  32.1939373  14.7613549  11.8251431  31.4411926
  13.5767972  12.2990537  32.2555757   9.7350359  21.0080647  30.0965667
   9.3239546  20.1942682  29.8050523  10.0414646  21.4237022  29.2906022
   9.7305685  74.8915243  67.0418978   9.7060639  74.4738293  66.1809874
   9.0900403  75.6003475  66.9825220  15.2891850  23.2351661  54.9587107
  16.1863303  23.1047368  54.6515465  14.9686384  22.3524070  55.1436949
  22.5051761  16.5454805  15.3756011  21.5669823  16.3556874  15.3740549
  22.8432274  16.0886288  14.6053815  71.9654560  36.1066389  25.4869080
  72.6104593  36.3853979  26.1369038  72.0802546  36.7169857  24.7585320
  80.3092766  31.9736218  46.4651775  81.1201954  32.4294162  46.2395954
  80.5595016  31.3728166  47.1670675  13.1286895  34.5908618  17.3523998
  12.2429979  34.7709274  17.0371878  13.4830105  35.4515457  17.5758100
  77.5746155  30.7541442  30.2880263  77.5182152  31.6617227  29.9891114
  76.7351055  30.3674245  30.0392318  66.5480375  19.2861056  25.0521874
  66.3282156  20.2128005  25.1478219  67.4801350  19.2822826  24.8344374
  82.1888161  14.2701948  38.2424569  82.8122044  14.8367882  38.6969876
  81.9823074  14.7406590  37.4348354  10.8472574  10.5321085  38.7823677
  10.7234716  10.5558598  37.8335047  11.4579916   9.8092365  38.9262152
  10.4825473  46.7203236   7.1419936  11.1227047  46.9533920   6.4696038
   9.8154932  46.2182283   6.6738379  83.0621433  37.0987153  23.1893373
  82.8762436  36.8840766  22.2752237  82.4788284  36.5303111  23.6922264
  13.3020759  37.0551395  28.9538074  13.7375593  36.2116313  29.0766072
  12.3862350  36.8302345  28.7898374  81.3824463  42.8276443  25.1924419
  81.7940521  42.9008865  24.3313694  81.5061855  43.6890268  25.5911136
  63.0766630  12.8867269  20.2226257  63.9001465  12.4554574  19.9943435
  62.6022196  12.2375226  20.7419252  81.2963963  29.9779153  48.1321907
  81.3797092  29.5953894  47.2587109  81.1596680  29.2273712  48.7103081
  85.0855160   4.2913687  51.8221855  84.6216393   4.6888933  51.0852861
  85.9384441   4.0457037  51.4638615   1.8617173   9.4337672  38.3136082
   2.1884075   8.7998456  37.6751328   1.2559208   8.9329869  38.8599229
   6.0972804  11.6420233  48.1373405   5.5514395  10.9499872  47.7640057
   6.9762957  11.4589477  47.8056049  13.8043571   8.6033040  19.2554069
  14.6153915   8.3700281  19.7071123  13.4323812   9.3112820  19.7813654
  75.8003473  32.0509100  48.1007195  75.1943731  32.2641230  48.8103437
  75.4985523  32.5786519  47.3613691  17.1740067  33.0812478  30.9941864
  16.4704764  33.4702969  30.4746532  17.8834236  32.9382038  30.3676891
  61.0306740  20.4173470  16.0756576  61.5685892  21.1177301  15.7064140
  61.2096596  19.6592522  15.5193424  12.9199803  44.9760056  31.1118865
  12.0282531  45.2839804  30.9500003  13.4085584  45.7666206  31.3408923
   5.3209919  31.8884325  23.3247399   5.7950449  31.1290169  22.9859304
   5.9065831  32.2620463  23.9833212  18.7316382  18.9303398  33.3355236
  18.1357801  19.3674588  33.9438939  18.6905921  18.0064166  33.5823250
  13.9774573  24.2903566  41.8455839  13.8589311  23.6303329  42.5286293
  14.9209857  24.3018770  41.6847992  55.0359917  73.5615587  35.6247234
  55.5667543  73.4542942  36.4140368  54.1336870  73.4578085  35.9269118
  62.0502329   6.0349727  23.6371422  61.3144636   6.6299379  23.7816644
  61.6423273   5.2059734  23.3869314   0.9035778   5.7139796  30.5661178
   0.0857846   5.3585058  30.2181458   1.0232590   5.2646035  31.4027596
   0.6757782  25.8970594  23.8478374   0.3941190  26.0343409  22.9433751
   1.1237368  26.7090249  24.0850592   0.1959036  14.1830719  32.1304631
   0.6936710  14.9758756  31.9306564   0.2828379  13.6415935  31.3459420
  24.8182178  42.0090389  14.2092586  24.7890520  42.2115088  13.2741714
  24.1702080  41.3139772  14.3241477  10.4002321  37.7245998  37.8230906
  11.0905039  37.5292945  37.1893620   9.6439815  37.9639840  37.2873569
  72.8170252  78.3573771  34.4752979  72.0442915  78.4717369  33.9220977
  73.5530376  78.5922575  33.9101839  76.0321569  18.6763167  36.4213252
  75.5319166  18.4950674  35.6256247  75.3698111  18.9021969  37.0744014
  13.4075665  22.4004412  49.5480394  13.7136054  21.5774918  49.1668272
  14.1816330  22.7701545  49.9727345  83.9360714  28.6647701  38.2109642
  84.3657780  27.9119253  38.6169338  83.4272099  29.0604353  38.9185929
   0.6654181  22.4011087  33.1061411   0.3431747  23.2870650  33.2718873
   1.5913445  22.4341416  33.3465600   9.8320991  46.4596224  46.7951107
   9.7776121  46.9839048  47.5940990   8.9896822  46.5956688  46.3614511
  17.8725362  41.6545963  43.5854530  18.7223709  41.9030285  43.2217312
  17.2504783  42.2521639  43.1704998  74.3472624  30.9001851  44.0010977
  74.0098047  31.7530656  44.2748690  74.9187136  31.0958433  43.2585382
   9.8371410  17.5142050  24.5974231   9.7141814  16.5688658  24.5111251
  10.0429440  17.8108788  23.7109351   6.6788226  35.3064942  16.4252913
   6.8287104  36.1039495  16.9330609   7.1872699  35.4334617  15.6242967
   4.5937848  17.8171718  28.9037395   4.6625027  18.2292497  28.0425191
   3.7463501  18.1073761  29.2411828   0.2291902  59.8826933  25.0756192
  -0.1236120  59.1275549  24.6049571  -0.0774828  59.7688866  25.9751916
  14.2850876  48.3455706  36.3851666  15.1249421  47.9167032  36.5493274
  14.2838156  49.1021109  36.9715738  26.1117339  18.5183811  46.4354038
  25.2076125  18.2294846  46.3115788  26.4419174  18.6589718  45.5480194
  74.5643759   6.4025801  30.3932524  75.0769663   6.5505117  29.5985198
  74.3755674   7.2809601  30.7234502  11.9301200  37.2860265  35.5458212
  12.5854564  37.5267649  34.8909855  11.0911512  37.4110532  35.1022792
  74.1272068  42.8004313  53.9862013  74.2975998  42.0352077  54.5354128
  74.8753119  43.3773041  54.1404390   2.1281926   1.3351768  58.6839533
   3.0406782   1.6242887  58.6879921   1.9835506   1.0111342  57.7949619
  73.5303783   8.9108640  13.6807394  72.8224659   9.2357177  14.2371237
  73.2985497   7.9986912  13.5063052   0.1928088  52.7785683  42.2451496
  -0.2872587  53.5902977  42.0812511   0.9938848  53.0592299  42.6875687
  19.2178524  26.7507958  32.5762105  18.3681166  26.5741229  32.1725178
  19.6371388  27.3779750  31.9870782  60.1814222  71.3965273  48.5751343
  60.7514858  71.9150543  49.1429281  60.7668018  71.0458899  47.9038572
  34.6977854  79.3187714  69.5191860  34.9786496  79.1013908  70.4080582
  33.7445831  79.2343807  69.5418167  11.5388858  29.5795774  30.0581884
  12.2998619  30.1592588  30.0247478  11.5379906  29.1363144  29.2098093
  13.0519962  71.8244076  39.9366760  12.8382528  71.3119793  39.1569543
  12.2508061  71.8093586  40.4602194   8.2986045  29.0142941  10.4668486
   8.7080795  28.8604760  11.3182604   8.8619900  28.5554385   9.8437268
  10.7516861  24.9583554  35.8406973  11.0548878  24.0683389  35.6613278
  11.5457273  25.4395390  36.0734892  75.1819324  47.7116108  38.5354280
  74.9472094  47.9984236  39.4179654  74.9363613  46.7867708  38.5109067
  80.0368404  45.8926058  43.5781240  80.6288147  45.1519871  43.4466743
  80.1844883  46.1591148  44.4855404  15.6451106  41.9879341  39.2614746
  15.7804370  42.9222345  39.1033673  15.5998015  41.9103813  40.2144527
  17.7775562  52.3187542  35.1450086  16.8308842  52.1773148  35.1387239
  18.1365347  51.5198183  35.5311036  72.1048117  15.6488597  22.1359468
  72.0418596  16.5990496  22.2329473  72.0409632  15.3121150  23.0296779
  10.2756524  32.7311826  29.0103459  10.5826962  31.8585610  29.2562890
  11.0414648  33.1537914  28.6215472   5.3112835  21.8943763  23.1621361
   4.4984430  22.3917770  23.0720544   5.7601333  22.3011827  23.9032674
  23.0107999  23.5697746  52.6912117  22.6641870  24.0487528  53.4439850
  22.9837823  24.2012882  51.9723988  82.0343208  35.3811765  47.6034546
  81.4684963  36.0674477  47.9571629  82.4940681  35.0325274  48.3671999
   0.5270316  43.2359457  18.0672312   0.0536101  43.8370323  17.4920785
   1.0723536  42.7177191  17.4753749  79.8045778  50.2460146  24.8171616
  80.2416039  50.9525251  24.3416786  80.4027081  50.0337553  25.5336881
  74.7747660   6.6009068  34.2381835  74.4768381   7.4691331  34.5095801
  75.2978039   6.7618155  33.4528375  13.0321622  41.8122244  39.0374517
  12.7136850  41.2355232  38.3430314  13.9571512  41.5849304  39.1321397
   6.3932782  30.7489848  49.0368128   6.6778505  30.6659532  49.9469519
   7.1193415  30.3919840  48.5253286  26.4460015  35.1963758  23.9567828
  26.9470549  35.6028700  24.6638465  25.5456352  35.1779318  24.2811799
   1.8694933  25.0169849  13.1581259   2.3469713  25.7896781  13.4601045
   1.0347739  25.0535583  13.6251783   0.6936393  37.0594788  32.9651475
   1.2684193  37.8218460  32.8969383   0.2877046  37.1420121  33.8280725
  12.5002837  29.4658661  12.2388661  11.9814646  29.7158980  11.4743125
  12.0470750  28.7024140  12.5966012  72.0005131   8.5887510  28.4276938
  72.5908899   9.3256474  28.2706165  72.0749855   8.0500579  27.6399803
  85.3431988  38.8461351  16.4179432  85.0095749  38.0313206  16.7934525
  85.9747696  39.1658378  17.0622551   8.0632609  34.3524075  45.7569408
   7.3744583  34.9006534  45.3811646   8.2979292  33.7470031  45.0536251
  11.3682544  18.4968340  55.1979208  12.1945965  18.8605928  55.5158329
  10.7554555  19.2315066  55.2289867  13.0085778  23.6178684  22.2987223
  12.7124226  23.8522482  21.4191842  13.9135802  23.9272714  22.3371053
   6.2120116  35.9348869  44.5502329   6.1202270  36.3767195  43.7060833
   5.3265941  35.9267402  44.9138308   2.9231957  42.2101402  42.1896791
   2.0744494  42.3029757  41.7569637   2.9728219  41.2832117  42.4232912
  17.1531045  55.8402014  44.9358511  17.3664820  55.6609011  45.8515787
  16.1982870  55.7848930  44.8971510  29.2860794  65.3726339  34.4364882
  28.4174800  65.3625441  34.0344119  29.7219038  66.1302185  34.0461659
  13.0374002  57.7580404  57.7234125  12.1601140  57.4505520  57.4952602
  12.8887689  58.4476423  58.3703947  11.5309453  35.6136227  45.6847382
  11.0618854  36.1466789  45.0428152  11.6212308  34.7579408  45.2653503
   7.0355380  26.1330962  23.1861854   6.3574135  26.2238312  22.5167489
   7.8559887  26.2902474  22.7188563  84.3252659  22.7441764  16.8505216
  83.7895203  22.0732641  17.2737002  84.5158291  22.3867011  15.9832668
   7.9302841  61.8660736  19.4470990   7.2498006  62.0235968  20.1015925
   8.4094810  62.6931095  19.3959856   5.7926226  33.1991982  35.3793621
   5.3180623  32.4810672  35.7980657   5.2231878  33.9603305  35.4918551
  15.1768589  16.1463666  32.8688669  15.0394082  15.2680564  33.2237053
  14.6048295  16.1872923  32.1024847   3.7319893  55.5098152  53.6180687
   3.0492264  55.7396126  52.9877853   3.3006352  54.9160910  54.2326117
  12.8947067  46.9578934  51.3929367  12.4594665  46.5251684  50.6583977
  12.4623561  46.6035795  52.1699619  33.2442307   7.7622706  23.6910772
  32.3649788   8.1335282  23.6181784  33.1141615   6.8184942  23.5983419
   4.9558559  42.1821022   2.1323936   4.7399867  41.5450668   2.8134352
   4.3423811  41.9913006   1.4228342  83.9558506  36.7469883  45.0222015
  83.8357258  37.6585722  44.7560787  83.6203861  36.7128086  45.9180403
   2.3123251  76.5496111  15.2938247   2.8280771  76.4662123  14.4917798
   1.7732745  75.7589149  15.3152549   0.3656114  37.0485377  59.9903250
   1.1660483  36.8940639  60.4919910   0.4263794  37.9642701  59.7183418
  83.4714603  61.5613461  28.2532191  84.0834236  61.4325428  27.5285578
  83.3661842  62.5109243  28.3119130   9.0853655  31.8401885  21.0107994
   9.7576231  31.1925650  20.7989430   9.2091751  32.5344396  20.3635597
  17.1993792  24.1327810  22.8146482  16.5319335  24.7130418  22.4485254
  17.8405762  24.7240400  23.2089972  78.2758236  37.8432608  34.4379807
  77.5043774  38.1110668  34.9373674  78.1692123  36.8993092  34.3204165
  11.7702007  37.2287774  19.9697971  12.5982893  37.4667501  20.3867769
  11.4479971  38.0474210  19.5926511  82.0427704  34.0736604  54.0939951
  82.6612854  34.6127129  53.6009407  82.1333885  33.1988430  53.7162209
  28.8938046  50.2609873  15.6010842  29.3487644  50.4935408  14.7916615
  29.1937041  49.3735504  15.7979214   7.9588264  36.5638590  22.4754262
   8.2592112  37.4602795  22.6252031   7.0528346  36.5600944  22.7842879
  13.9944506  48.6347151   8.9580792  14.0537643  47.8268337   8.4481418
  13.0743623  48.8909435   8.8947099  12.0668817  27.8724933  25.6427717
  11.6521871  27.8446889  26.5050292  11.3768363  28.1799173  25.0549293
  13.6625314  36.1084628  49.5272970  14.3013513  36.6931701  49.1195488
  13.1669378  36.6721082  50.1213694  11.7128372  17.4105370  52.5830650
  11.0988259  17.9515529  52.0865536  11.7797971  17.8437161  53.4340096
   1.0710274  21.3641238  19.9259472   1.1118224  21.3713217  18.9696443
   0.6027064  22.1678138  20.1517558   5.0068784  42.2943926  30.4159594
   4.7146243  41.3889885  30.5211616   4.8082617  42.5057220  29.5037508
  84.9385929  34.9219012  28.4671140  85.0537300  33.9730287  28.5182548
  84.8240757  35.0993013  27.5334954  13.1633663  45.0565386  37.7632046
  12.7216518  44.2263317  37.5846815  12.7436173  45.6828308  37.1734548
  19.7324049  43.3775568  42.3477316  19.5944130  43.0489922  41.4593410
  20.6827044  43.4597445  42.4277878   9.6237922  46.4887333  42.4822283
   8.7710166  46.2630415  42.8538084   9.4253117  46.8011904  41.5995026
  13.1174195  50.5786514  37.6453972  13.3942235  50.4052353  38.5451388
  12.1612358  50.5921936  37.6873660  67.4450493  30.8851194  25.7065535
  67.5600338  29.9357438  25.6653643  68.1710386  31.1909485  26.2502813
   4.3277866  56.1764765  49.6906185   5.1926136  55.7679129  49.6534252
   4.5021853  57.1141577  49.6095610  23.4196329  45.4789448  34.9790406
  24.0065312  46.1960411  34.7391391  23.4301686  45.4708099  35.9361482
   6.1659640  29.8775053  17.2530937   6.1666584  30.7758474  16.9226158
   7.0655376  29.5754337  17.1275890  15.7774651  45.9341812  50.9214783
  15.0978017  45.8263302  51.5868044  16.5501106  46.2150908  51.4117193
   1.8767287  53.4054804  28.1130958   1.9318968  54.1875315  27.5639248
   1.2289286  53.6276388  28.7818503  14.2076576  71.9489145  13.7065196
  13.5304189  71.6764784  13.0873609  15.0228548  71.8983173  13.2073939
  35.7381225   6.9486958  28.5140944  36.4878106   7.5170559  28.3375573
  35.7609820   6.2974066  27.8130007  20.5853701  38.3963919  23.7439418
  20.6601143  37.7828789  23.0130219  20.2169442  37.8752780  24.4573379
  64.7966576  66.2994623  42.7856159  65.0402021  65.5187178  43.2829666
  64.5391226  65.9654140  41.9263649   2.1620642  51.8826389  47.7110100
   3.0451462  51.5742445  47.5078106   2.2925395  52.7555323  48.0815077
   6.5571558  59.4145775  42.6069498   5.7728869  59.9629831  42.6270294
   6.4004815  58.7986803  41.8911600   8.9959317  36.3562346  19.7551382
   8.4168875  37.0056248  19.3561018   9.5935559  36.8699360  20.2984524
   8.8075250  40.5473089  20.9053183   8.9092702  41.4989853  20.9192586
   9.6486849  40.2119350  21.2154889  66.2589502  25.4357767  18.7190759
  65.8717108  25.1209283  19.5358682  67.2033453  25.3730774  18.8619590
   9.3221217  34.2880130  55.3585958   9.1319960  34.7347426  54.5336628
   8.5728234  33.7082624  55.4952478   3.9322463  21.6576815  19.4351387
   3.0874801  21.6210794  19.8837614   3.9360681  22.5107074  19.0008986
  12.4162006  42.6809406  44.5358133  12.0854509  43.0807447  45.3401709
  12.7130687  43.4203386  44.0053463  35.7398152  62.4386644  69.0096855
  35.0565195  62.3943663  68.3408260  35.4166532  61.8835354  69.7193527
  82.8586578  39.3237972  56.7242813  83.0766869  39.0490532  57.6149035
  82.7947521  40.2774239  56.7766905  79.1566563  65.1560545  21.3691354
  79.1668510  65.9540987  21.8975782  78.2508421  64.8500538  21.4148855
  33.3861852  28.1997418  61.2881422  33.2770705  27.2612572  61.1346149
  34.3041182  28.3716512  61.0782003  15.3565848  17.3646462  28.8262701
  16.3120854  17.3144269  28.7992835  15.0773942  17.0865285  27.9539537
   8.5189342  48.8336372  37.7048492   7.8471732  49.4939613  37.8749728
   9.0130579  49.1804981  36.9620442   1.0275369  28.5416746  34.2910981
   1.4494270  28.7402487  35.1270461   1.7519152  28.4592271  33.6708474
   9.7459555  53.9361143  44.6019077   9.4704944  53.6791372  45.4818630
   9.1780233  53.4344578  44.0170813  74.3493366  17.7157903  34.6164870
  74.8073435  17.5091934  33.8017607  73.5180855  18.0970907  34.3338943
  21.8276739  38.3824992  28.0296063  21.0432458  37.9324961  28.3432961
  21.6728854  39.3046117  28.2344937  86.0609245  55.4374123  21.0184073
  85.4396725  54.8938370  21.5029716  86.2530136  54.9342394  20.2271056
  26.0936975  55.0674391  66.5259361  25.4195142  54.4755077  66.8595886
  26.6980052  54.4980288  66.0496902  16.6093969  24.6647501  31.2491345
  16.5769601  25.4361153  30.6832910  16.0007524  24.0459251  30.8456016
  85.9065437  18.8779938  31.6508627  85.7070160  17.9964232  31.3358212
  86.0704517  18.7663102  32.5872898  70.1839256  25.9660506  33.8191056
  70.5530596  25.6824923  32.9827046  69.7197580  26.7774773  33.6132669
  38.3367729  17.6679051  11.1999989  38.4080124  18.5040200  10.7394910
  38.9352703  17.0852399  10.7325220   0.0290045  29.7676277  22.5633907
   0.4614672  29.1233468  22.0029330   0.2511438  29.4974852  23.4544063
   8.9411831  33.2204485  48.1114769   8.6094421  33.7325668  47.3739719
   8.8309383  32.3094034  47.8393078  12.2486269  24.4521666  60.6505299
  12.9487383  24.1531968  61.2307835  12.6048982  25.2338576  60.2283192
  85.4070950  40.3301001  30.5568957  84.5591831  39.8990083  30.6637979
  85.4902554  40.4642344  29.6127963  15.5084836  40.7669353  20.1948500
  16.0906816  40.2003813  19.6885931  15.8393383  41.6514015  20.0383782
  39.8795414  70.2606821   4.1363013  39.4459820  69.4670916   3.8225055
  40.4163218  69.9654913   4.8718005  35.7391357  46.3251877  17.6265061
  34.9969316  46.7776537  17.2257078  36.4160037  46.3292742  16.9497001
  18.7860012  36.5132976  19.3286872  19.0017593  37.3092604  19.8146093
  18.2116997  36.8115234  18.6233711  29.9232221  49.5133448  43.4850502
  30.2072668  48.6052942  43.3802128  29.5389056  49.7432756  42.6390791
  80.8025265  31.6479373  35.6123805  80.4389381  30.8342624  35.2631402
  81.6866112  31.6910386  35.2480006  24.1079998  48.3029699  17.9771852
  24.8539758  48.8916349  18.0921924  24.4510341  47.5819445  17.4492812
  85.8479023  30.2338314  14.8215544  85.9639549  30.5914736  15.7018137
  85.1492977  30.7638812  14.4378519  83.7176514  28.3814526  19.7908568
  82.8784752  28.5347271  20.2250385  83.4972286  28.3095837  18.8621593
   8.2448918  61.9336176  33.8994551   7.4427003  61.9308186  34.4216752
   8.9337212  61.6885233  34.5172548  84.5036507  68.1331778  40.0695992
  83.7860680  67.9881620  39.4529390  84.4237900  69.0541983  40.3177309
  10.1167262  43.0142784  13.8313723  10.7767045  43.2414055  14.4864082
  10.4283679  43.4250927  13.0249345  21.7748475  38.4114289  34.9305534
  22.5203443  37.8828931  34.6457458  21.0233951  38.0297971  34.4767809
   6.1842066  22.3893070  53.0607891   5.6775635  22.5940418  52.2748995
   5.9966284  21.4666104  53.2330608  77.5703859  14.5948565  41.9777870
  77.5800180  14.6800482  41.0244370  77.5732565  15.4965925  42.2988749
  17.9591632  17.5452316  36.5591121  17.8805220  17.9440606  37.4257040
  17.0954502  17.1692431  36.3892174  66.5921688  38.4544349  52.5693130
  67.4819517  38.2847524  52.2599173  66.6744566  39.2330909  53.1199121
   2.3652457  31.3979316   7.4455357   1.7764625  31.8591738   6.8481892
   3.2291561  31.7676139   7.2632593  15.1350176  30.3828096  39.9554944
  15.4855478  29.6139264  40.4051352  15.2245641  31.0932636  40.5906868
  15.9323394  28.4870529  41.7746973  15.0227845  28.1912470  41.7367315
  16.1667144  28.4225965  42.7005148   1.6764551  55.7978916  26.5935254
   1.3395301  55.6341839  25.7126665   2.4703655  56.3141489  26.4541817
  18.1673193  41.1387920  31.8957400  18.1080961  41.2556076  30.9475422
  18.1125867  42.0262289  32.2502708  15.9662747  13.3009601  29.0246916
  15.1088536  13.7118292  29.1353559  15.7734430  12.3696065  28.9168525
  27.7991199  70.7316208  23.4790468  27.7330709  70.9300900  24.4131136
  27.9008412  71.5858412  23.0592918   2.5581631  28.3669305  19.3063664
   3.4032336  28.8162994  19.2938900   1.9358987  29.0179563  18.9820445
  66.6263914  28.3791709  40.1036787  66.0142136  28.6044383  39.4031620
  66.0724545  28.2502723  40.8735943  84.6288300  29.9056983  35.9268665
  85.4247665  29.4845247  35.6023145  84.5155430  29.5551467  36.8103337
  24.3658042  48.2632732  29.1901875  24.2131567  47.7283573  28.4112167
  24.8129916  47.6763391  29.7999144   3.5867953  16.2260628  26.6084504
   4.1132113  16.0359406  25.8319378   3.5398212  17.1816564  26.6378808
  72.0693398  41.2235785  35.8505011  71.1738729  41.2579298  35.5140567
  72.3665524  40.3359985  35.6502461  35.7488537  71.5108347  61.8615198
  35.6653881  70.7766294  62.4699688  34.9543118  71.4722061  61.3291264
   9.2180228  42.4456835  24.8149967   9.2110246  41.9832325  25.6530404
  10.1368821  42.4415684  24.5468330  51.8208313   7.4988210  32.0899653
  51.3850307   7.0325154  32.8033185  51.1145353   7.9627609  31.6403651
  30.1634073   4.0679774  25.3122282  29.9029231   3.5927936  24.5231891
  29.3899846   4.5792738  25.5501938  68.1507635  49.4532394  16.1879528
  67.9186678  49.7125340  17.0796537  68.0085039  48.5068607  16.1690128
   1.2905334   9.2172587  42.2378922   1.0389182   8.4569812  42.7622032
   1.5889297   9.8622584  42.8791142  15.9493089  29.2738509  32.4651742
  15.9946024  28.6749506  33.2104921  15.0168550  29.4682384  32.3704386
  67.5021648  57.4407291  32.2961617  66.7017889  57.5183249  31.7769194
  68.1921291  57.2858858  31.6510248   5.8755130  30.1244020  26.7659235
   5.5207354  31.0065007  26.6551685   6.5794146  30.0664878  26.1198592
   6.8603277  12.0584679  52.3306847   7.8171515  12.0337903  52.3201847
   6.5965116  11.3877654  51.7007685  80.8134937  57.5732470  10.8598852
  80.7746029  58.3109570  10.2511990  81.2965298  56.8965578  10.3855407
   7.9406840  32.2502851  41.2103939   7.1255213  32.2257352  40.7092571
   8.6054802  32.5126433  40.5736446  27.4781203  78.5458708  55.2991438
  27.4191594  78.9895391  56.1452579  26.5818906  78.2664537  55.1122475
   7.8802520  21.7144251  49.5167589   8.0151719  22.6128554  49.8181725
   8.1339604  21.1708879  50.2626991  25.5161023   6.8996930  14.9565446
  24.6356773   7.1435493  15.2422309  26.0947371   7.5042146  15.4212701
  10.5915129  28.7521529  37.8624010  10.9761691  28.1431484  37.2320175
  11.2623799  28.8534141  38.5376167  82.3944569  70.1447201  15.6384933
  83.2604885  70.5501413  15.6816518  81.8113804  70.7806349  16.0530496
   9.6047735  55.5015326  17.4599171   9.7667712  56.4445782  17.4854922
  10.4458249  55.1208067  17.2071147   3.5455352  61.9430256  27.4982190
   2.6827323  62.1336889  27.8662539   3.4087420  61.9502163  26.5508699
  76.5127897  46.1384344  40.8075571  76.7053795  45.4865742  40.1335955
  77.0577908  46.8905067  40.5760527  14.2619145  53.5605621  39.1116714
  13.7783206  53.8189888  38.3270812  14.8575544  52.8743553  38.8107252
   3.5035431  26.2447071  53.5090494   2.7088368  26.4948487  53.0377722
   3.4046751  26.6431785  54.3737316   4.1032088  51.2109232  46.0133219
   4.8152092  50.6739807  46.3611412   4.5121670  52.0542431  45.8189058
  55.2580690  80.7209396  40.2470398  55.5775642  81.6199017  40.3247261
  55.9272814  80.1906776  40.6797171  28.6524630  75.4534721  46.2498188
  28.5610342  75.0097275  45.4066324  28.2976508  76.3296175  46.0991001
  25.8440161  59.9369812  46.5590477  25.5493712  60.3096914  47.3900127
  25.6685948  58.9996052  46.6413927  70.8990192  64.9573231  45.8392620
  70.4420042  64.1174698  45.8841276  70.2426434  65.6016350  46.1043358
  28.3853531  51.7584562  37.1049523  28.8297129  52.1148252  36.3356829
  27.4648333  51.7072964  36.8475485   2.2865649  69.9481058  29.8211884
   2.6485166  69.3788385  30.5002761   1.5192911  69.4764042  29.4971228
  23.1322527  68.6110020  56.8145514  22.9498696  67.6832533  56.6653919
  23.8219190  68.6158228  57.4783039  20.7692218  23.0943060  15.6424034
  21.5133333  22.4947166  15.5873966  20.1540470  22.6590681  16.2326241
  33.5607982   2.1332291  59.5519733  34.4004130   1.9223109  59.9603748
  33.7227583   2.0460279  58.6126137  31.1847448  64.3729877  41.4455366
  30.6169772  64.0521574  42.1462059  31.4117169  65.2643681  41.7104053
  17.1245873  27.5354004  34.3079758  16.7188132  26.6704392  34.3664908
  17.9506111  27.3819160  33.8493276   0.9366442  59.7463131  42.1522951
   0.4746338  59.1330671  41.5807104   1.0071754  59.2870331  42.9891443
  39.8243999  63.5081577  26.6887307  39.3113208  62.7241564  26.8845010
  39.7625828  64.0392828  27.4826550  14.8307014  57.5110102  33.9212704
  14.4558549  57.8291798  34.7425461  14.0717816  57.2945309  33.3796000
  84.2485714  38.4094787  38.0760550  83.6781311  37.8106833  37.5941157
  84.6973419  38.9120483  37.3961520  21.1516142  56.5848637  29.7116876
  21.0098696  56.1926651  30.5732703  21.9998741  57.0223713  29.7843027
  13.8377368  50.2414894  25.2652574  13.5204399  49.8358536  24.4584036
  13.5661054  49.6400404  25.9585881  11.8593359  48.2974339  31.1941195
  10.9336853  48.4759998  31.0282373  11.9688880  48.4529066  32.1322322
  16.9989228  56.6244411  54.6643543  17.0502949  55.6945324  54.8853970
  16.1106241  56.8808222  54.9122000  27.6851106  67.4447393  30.1396227
  27.6696444  67.9971170  29.3580437  26.7670178  67.3737860  30.4009748
  22.8421235  42.9268837  42.5791168  22.9779243  42.2448206  41.9214106
  22.6972508  42.4475384  43.3948803  21.9393396  61.6432381  50.4945087
  22.4924254  62.2891998  50.0551224  22.1571183  61.7329311  51.4222813
  25.5265880  43.4369326  43.3676481  24.6235442  43.5253191  43.0628014
  25.9650540  42.9402018  42.6768255  21.8019891  71.8496656  20.7082152
  22.4035692  72.2829819  21.3136649  21.1192989  71.4831400  21.2702012
  10.1787210  41.5414333  43.1585264  11.1093533  41.7590189  43.2115459
   9.7972691  42.2466707  42.6356840  21.8218613  41.1112118  38.3791780
  21.5306425  40.7411671  37.5458169  22.6962495  41.4549494  38.1960917
  22.5206184  68.7531471  24.9472189  21.9336414  68.5749435  24.2124176
  22.8685832  69.6269417  24.7693491  15.6535268  54.8393059  34.7021198
  15.4459238  55.7596588  34.8636246  16.4923215  54.7021484  35.1423979
  23.8293624  65.1941013  22.0192456  24.0990329  65.2760649  22.9340100
  24.6371818  64.9879932  21.5489483  14.8966420  32.2808075  42.0685434
  14.1462123  32.8659511  41.9651222  14.8760104  32.0255566  42.9908514
   6.0473812  49.0679264  46.8539810   6.1269563  48.1154966  46.9066763
   6.2422585  49.3739271  47.7397680  12.0115483  54.5350552  16.7971718
  12.7937329  54.4984722  17.3476982  12.1700191  53.8852882  16.1123967
  25.1389885  38.8154554  40.3733349  24.9142838  37.9579949  40.0120831
  25.1394582  39.4015408  39.6165419  27.9923248  65.4816389  61.8349600
  27.8753781  64.9186659  62.6002169  28.6610699  65.0392818  61.3121462
  16.5025842  52.1724939  38.1141543  17.2093952  52.1436214  38.7589931
  16.8503392  51.7022896  37.3563910  30.2349973  77.5120831   4.9503446
  29.4169688  77.0404816   5.1073557  29.9714971  78.4288740   4.8710346
   6.9114256  55.0476027  49.5465040   7.0910734  54.1075850  49.5644855
   7.3594385  55.3918886  50.3191519  16.5367413  63.0132389  29.4821525
  16.9840848  62.6341343  28.7255859  16.4957976  62.2994757  30.1186275
  73.2613802  36.5706825  67.4510241  73.2861948  35.6410480  67.6777315
  74.0731239  36.9270062  67.8120470  17.5567400  53.2357645  26.8209600
  18.2063067  53.4448290  27.4922180  17.9748058  52.5620699  26.2846875
  29.0066195  49.3929100  28.4524703  29.7663236  49.2249680  27.8949094
  29.3796206  49.6030569  29.3085885  17.3049927  51.9104433  20.5940485
  16.8381095  51.6942310  21.4012074  17.0813787  52.8258419  20.4258800
   6.1431152  66.2542582  59.4161558   7.0775706  66.2589073  59.2087793
   6.0565007  66.8684673  60.1451778  27.9050827  47.3702431  42.6410770
  28.1741428  47.2631550  41.7287302  28.1020260  46.5271997  43.0493975
  12.6787925  58.9774847  12.3136151  13.5162628  59.0073967  11.8510342
  12.0378351  58.7652969  11.6351020  27.7155375  46.9484758  18.4285069
  27.3739839  46.3315582  17.7812159  27.1172476  46.8715429  19.1717160
  16.8104339  32.3001623  36.1564493  17.1798015  31.4394832  36.3540125
  16.4255238  32.2014546  35.2856255  47.6449776   7.3646832  61.6772318
  47.9724121   6.9088620  60.9018278  48.0635166   8.2248867  61.6439629
  18.4807265  67.7636862  38.0668497  19.3229771  68.1120539  37.7744675
  17.9498243  68.5397053  38.2462215  17.7817976  54.7127867  37.2488332
  18.5160720  54.4421721  36.6976166  17.7209508  54.0313196  37.9182577
   2.6303735  44.4052505  39.1889429   3.3913386  44.3250704  38.6138463
   2.4796268  45.3480768  39.2566776  12.7215278  53.8475132  49.7649813
  13.5551488  53.4446478  50.0078917  12.0751393  53.1519556  49.8858643
  35.8245277  69.4840145  40.5891275  35.0744057  68.9081478  40.7371950
  36.5826917  68.9001083  40.6107283  35.2426815  71.2885666  43.2045317
  35.3368783  70.9468937  42.3153639  34.5820093  70.7259798  43.6085558
  83.4737682  21.7613196  24.0203047  83.9407444  22.5198221  24.3707895
  82.6091766  22.0992494  23.7868071  70.3495407  55.8261681  51.1792183
  69.7278833  56.5307093  50.9964848  71.1209106  56.2721062  51.5290165
  19.3033993  58.5654163  26.7287540  19.1652882  58.2349300  27.6164126
  19.6178162  57.8067923  26.2369537  24.3610477  51.9362640  24.5943904
  24.9636674  52.3704576  23.9906073  23.6879754  51.5567732  24.0294218
  17.0025527  45.4748344  35.9614587  16.4843571  44.8227787  35.4897308
  17.8953838  45.3494930  35.6399369  28.3540154  29.1128778   9.4545627
  28.6321902  29.3959355   8.5835135  27.5397110  29.5904469   9.6129024
  22.1625328  58.8783836  47.4618769  23.0959654  59.0620756  47.5676727
  22.0981598  57.9250097  47.5181484   2.1280357  21.0721993  24.1143417
   1.3799870  20.7292151  23.6254478   1.8788372  21.9696760  24.3349457
  30.1645684  54.5313454  11.6386461  29.2141819  54.4324493  11.5819347
  30.3153682  54.9016333  12.5083458  22.8505445  71.1366463  41.5059185
  22.8352118  71.5473461  42.3703957  21.9732189  70.7688236  41.3999081
   5.8823115  17.9772985  16.6479456   6.3837940  18.6287940  17.1381497
   6.3815051  17.8479159  15.8415353  27.5480700  63.4655809  37.3983359
  27.0757842  64.2966175  37.4488449  27.9827309  63.3851290  38.2473516
  28.1361604  62.2351980  53.3706141  28.9137268  62.7404308  53.6080265
  28.0793595  62.3162317  52.4185419  46.0163546  69.9694443  69.7901297
  46.8942118  70.3394127  69.8835516  46.0293436  69.5341873  68.9377117
  30.6810641  61.5810108   1.4358401  31.2399197  60.8329058   1.6461997
  31.2350368  62.3455763   1.5932925  80.9513664  25.2203512  67.7921391
  81.2143230  25.4455495  66.8997383  79.9945021  25.2197862  67.7669477
  23.5361958  38.6266255  18.1886458  22.6942873  38.9429450  17.8609812
  23.3528519  37.7422547  18.5056686  20.3883004  56.4342594  43.7928534
  19.7177899  55.8066702  43.5230875  20.0543880  56.8052244  44.6096325
  11.4665592  48.5638428  28.1369090  10.8279705  47.8628063  28.2672358
  11.5043461  49.0134001  28.9811277  20.1765347  47.3774433  42.7443218
  19.2661715  47.4406767  43.0332375  20.4218054  46.4694881  42.9223585
  32.0174670  47.8045130  30.2906680  31.8653345  46.9349480  30.6607318
  31.3474631  48.3568192  30.6935096  80.4948235  65.1900864  14.8642135
  80.1311779  66.0161066  15.1831043  80.5514526  65.3037405  13.9154732
  85.3414249  43.2262802  33.8941169  85.6622982  43.4039736  34.7782516
  86.0430908  43.5312271  33.3188725  10.2878714  43.1656504  37.8054643
  10.7749379  42.3505306  37.9261923   9.4516879  42.8914738  37.4288249
  49.7851419   7.5378495  63.4695387  50.0341129   7.3595989  64.3764400
  48.9613724   7.0652521  63.3500051  17.8417206  49.9822617  33.1518292
  18.2620883  49.3011761  33.6768508  17.4243832  50.5563641  33.7940645
  27.6874852  52.9122877  40.0783157  26.9280672  52.5435257  39.6271682
  27.3956251  53.0289268  40.9824419  22.4929309  49.2487860  42.8824711
  21.7577362  48.6452007  42.9892874  22.5567293  49.6998835  43.7242937
  22.8802991  39.9515057  14.4030416  22.7570510  39.0046859  14.4706726
  21.9957161  40.3011274  14.2957640  41.2156391  63.9624071   4.7617751
  40.3979015  63.6943769   5.1809376  41.8465281  63.2884121   5.0146419
   8.3303064  46.2051535   2.5536153   8.1881940  46.7247152   1.7623571
   7.7205008  45.4719305   2.4714246  29.6865320  60.9646845  30.5495262
  29.3673778  60.3391504  29.8990798  30.4647636  60.5486012  30.9202862
  83.9065170  51.3701677  29.4697618  83.8508320  50.5245447  29.9147940
  84.6504688  51.2789679  28.8744044  84.6824646  59.7849703  55.0750780
  83.8425255  60.0962973  54.7377157  85.1588154  60.5827808  55.3049040
  25.0248504  24.8114419  14.1850865  24.8999047  25.2444386  15.0295591
  24.1694617  24.4335389  13.9808071   6.6851926  59.3719959  61.2386656
   6.3112760  58.5797119  61.6242838   7.0371139  59.8581982  61.9843149
  25.4384923  54.5298481  14.0715957  25.6627417  53.9985323  14.8355651
  26.2315273  55.0339222  13.8892901  34.4122577  49.5802975  32.7647424
  33.8815045  50.3483963  32.5536633  34.7080803  49.2528105  31.9153452
  23.3167028  41.2314415  40.8091593  22.9539132  40.8395481  40.0147820
  24.2348409  41.3983631  40.5961037  13.3328414  67.5933409  60.2015972
  12.4501753  67.7388239  59.8610592  13.8706779  68.2520199  59.7621632
  66.0694027  10.6036735  26.4515853  66.0392332  11.5402806  26.2564230
  66.9981909  10.4174626  26.5890741  25.2774644  54.1343594  32.6994157
  24.5515490  54.3699408  32.1216798  25.9065652  53.6954880  32.1268249
   5.8025521  46.1032677  30.2363634   6.3692617  45.4252768  30.6043315
   4.9512571  45.6767130  30.1384711  12.7986228  37.4242043  51.7337608
  12.8104031  36.5988469  52.2183990  12.8792036  38.0989623  52.4078798
  23.5667014  39.6614742   4.3384287  22.9607105  40.3369522   4.6429634
  23.0011153  38.9658999   4.0029836  13.8235855  30.7478476  22.3805928
  13.8142622  31.4247513  23.0573106  13.6804557  31.2245703  21.5629840
  15.3154480  72.3211241  32.6877260  15.6445515  72.6895809  33.5075808
  15.1527894  71.3992786  32.8876781  67.7292156  45.6021214  51.3374710
  68.6291456  45.7918167  51.6027546  67.4423695  44.9143028  51.9381857
  10.1579058  78.1190348  20.2593827  10.2993929  77.2328615  19.9263501
  10.8853114  78.2667446  20.8637786  79.9020290  55.4192305  23.9371514
  80.8271599  55.6537771  23.8640571  79.4530106  56.2541294  24.0696263
   9.7465670  79.0416574  43.8888741  10.4875016  79.0748692  44.4939709
   9.6351874  79.9463511  43.5967207  22.0717835  47.8227663  38.8788080
  22.1074057  47.8486300  37.9226208  22.2580123  48.7217093  39.1498280
  11.7369461  38.3900595  47.3104095  11.5656376  37.5048757  46.9889498
  10.8680606  38.7703085  47.4395657  30.0863004  64.4546080  23.8129640
  30.2701712  64.2846680  24.7368383  29.2172861  64.0800619  23.6688709
  24.5672750  59.4534492  54.7442436  24.6875572  58.5755825  54.3821478
  23.9467645  59.3330860  55.4630709  20.0426912  37.0221853  29.6047044
  20.1383901  36.1104822  29.8801494  19.9329662  37.5089240  30.4215741
  29.3620706  52.7804947  28.6590624  28.9804268  52.4816322  29.4844484
  28.6701632  52.6438475  28.0118966  77.7115107  32.4419880  35.2297616
  78.5407114  32.1766472  35.6275725  77.0593882  32.2953582  35.9149432
  15.2161276  40.7836771  36.8463898  15.5683196  41.4953423  36.3118553
  15.4487109  41.0207272  37.7441335  30.6099439  56.1659718  24.3265414
  30.2513862  56.0593319  25.2076197  29.8819757  56.5151072  23.8123441
  83.8057709  55.7237864  51.2075567  84.3871880  55.1114655  51.6583872
  84.3662930  56.4674616  50.9862089  15.9881496  69.8628712  26.6460872
  15.4615664  69.1690445  26.2491632  15.4757452  70.1497698  27.4019718
  18.6642790  43.4690857  15.4091465  19.3357730  44.0833521  15.1124883
  19.1499484  42.7934456  15.8822966  12.5333166  41.6161489  11.3290024
  13.2859004  42.1517467  11.5799737  12.5134993  41.6638231  10.3731966
  29.8535991  54.9435568  45.4641914  30.3725219  55.6486607  45.0771856
  29.5347953  54.4414091  44.7142315  12.5988221  57.7829695  40.0524187
  12.3084545  57.4382544  39.2079711  12.0955050  58.5889149  40.1679802
  16.4527881  76.5008926  53.8139200  15.7044554  76.0396099  53.4351730
  16.0922635  76.9598103  54.5726347  41.7589760  52.3577976  24.3968344
  42.5514841  52.7166939  24.7960258  42.0494556  51.5512943  23.9709234
  20.2090478  73.3400965  24.0453839  20.7622886  72.9752350  24.7360563
  20.4363346  74.2696381  24.0224314  24.9948692  74.8247671  14.5607674
  24.2500758  75.0689554  14.0113235  24.7410512  73.9880228  14.9502146
  85.6401634  36.2662029  23.2091093  85.5374432  35.5838013  22.5457788
  84.7472858  36.4576435  23.4960580  13.0006015  55.2211905  13.3256149
  12.6733136  56.0827208  13.5842204  12.3388958  54.6077824  13.6451662
   6.8403786  51.0200596  37.5857353   6.1104959  51.4136648  38.0638313
   6.8055177  51.4253855  36.7192912  23.7166047  46.3172722  32.0836425
  23.7495232  45.5578184  31.5019345  22.8298473  46.3048220  32.4438310
  32.1118283  52.3717213  29.0688825  31.2171865  52.4505568  28.7377739
  32.3605537  53.2661152  29.3021846  85.0051975  31.6276550  19.9553609
  84.6208668  30.7511067  19.9419463  85.9325218  31.4797688  20.1409554
  25.1847005  52.7537441  50.3402662  25.9761572  52.5331402  49.8491812
  24.5223093  52.9132128  49.6679258  77.4241018  42.9630375  52.9130316
  77.6804399  43.8296700  52.5976419  77.4776602  43.0296135  53.8664103
  28.7204719  53.1417131  61.4022684  28.7468696  52.4057722  60.7907724
  27.8042960  53.1941938  61.6744757   7.5471699  51.8527412  34.5912957
   7.3074549  52.7778101  34.6462059   7.6559436  51.6886997  33.6545515
   7.4557579  49.6875143  57.4240875   7.4686265  49.4413090  58.3489943
   8.2838202  50.1477432  57.2872019  17.7173638  59.6965456  32.4310112
  18.6095870  59.4232130  32.6442242  17.3389709  58.9446449  31.9752741
  75.2601290  49.8864031  15.9179866  75.1768398  50.6862259  16.4371920
  75.1767969  50.1800156  15.0107503  29.3404651  37.4329805  20.9856868
  28.5072207  37.9031825  20.9566069  29.1106319  36.5257049  20.7850409
  10.9359908  54.1720581  40.0403786  11.4149296  54.9741554  39.8318458
  10.8045447  53.7446833  39.1940308  22.0599318  14.1013730  20.0607777
  21.5260959  14.8445082  20.3418493  22.6867175  13.9737880  20.7728863
  14.9185348  34.2300224  29.7698045  14.6969497  34.1175747  28.8454199
  14.1537058  33.8999414  30.2413082  26.8223739  66.5873671  56.7388916
  26.0587120  66.6478062  57.3128223  26.8108630  65.6852293  56.4191246
   6.1455846  53.1719589  45.2997971   6.9175607  52.6800203  45.0200081
   6.4880985  53.8338518  45.9004736  31.4828181  48.3762312  40.6918764
  30.8225179  49.0690899  40.6783056  31.8866301  48.4471226  41.5568304
  18.7199020  45.0109720  47.8647900  19.4552255  45.3802919  48.3538055
  18.8506615  45.3178358  46.9675922   4.5164678  48.1488323  34.8883986
   5.4219162  48.2707357  35.1739407   4.5476016  47.3844194  34.3131256
  84.5788288  63.1209803  25.7174850  85.4870415  63.2414627  25.4402399
  84.0637684  63.2809544  24.9266911  20.9718871  46.8154860  20.6724119
  20.5728769  47.0970488  19.8491585  21.8459344  47.2055292  20.6606627
  84.2819500  51.8376684  36.3337755  84.7476387  51.3202095  36.9907379
  83.6093140  51.2463808  35.9958744   5.3964311  69.1222525  24.5650268
   5.4348546  68.6009789  25.3669167   5.9869182  68.6740637  23.9594841
   4.1961536  47.3051882  11.2267673   4.2919755  46.5314293  10.6714714
   3.8967681  47.9919624  10.6310010  15.0906682  45.5279732  25.1548028
  15.3002357  45.5213594  24.2208505  15.6747162  46.1889219  25.5266476
  32.5658774  38.4913373  21.8648624  32.6621437  38.4808731  20.9125733
  31.6450477  38.2773256  22.0148754  84.9135399  60.2728558  32.1786237
  84.7703648  59.3352079  32.0499516  85.5099773  60.5231142  31.4730310
  20.1299429  61.3519573  38.2785869  20.3587842  60.6062031  38.8333106
  20.1839733  61.0116720  37.3855472  35.1541114   2.5488204  45.6706667
  35.5062008   1.6797706  45.4782677  34.6046805   2.7573052  44.9150896
  22.4901462  57.6222992   8.8755602  22.0134473  56.8930626   9.2720461
  22.5119829  57.4145317   7.9414374  76.2191010  58.0016327  47.0661736
  76.7617178  58.1278229  47.8445530  76.5659094  58.6257887  46.4286900
  18.7856877  44.7554111  44.7051954  18.2208085  45.3127670  44.1699409
  19.0763915  44.0656900  44.1085291  25.1418376  63.6215305  32.7883482
  25.4947686  62.8613758  32.3259211  25.8830047  64.2228413  32.8613400
  24.5630860  51.2249422  45.2363729  24.0835071  51.5443087  44.4720173
  25.2220917  50.6321096  44.8751307  35.1931643  55.0092030   5.3433359
  35.8006334  55.2322817   4.6380326  34.6782994  54.2814398   4.9947622
  21.2676597  68.4070253  27.4031186  20.4352856  68.8790178  27.3784947
  21.5638232  68.3961058  26.4929533   6.0255885  63.5478115  58.9954901
   5.0800836  63.6162710  59.1280270   6.3778734  64.3600655  59.3593216
  33.5358882  57.3648310  20.8670998  34.1327715  57.8220558  20.2747250
  33.1237268  56.6948414  20.3216887  39.3390369  76.1229753  17.8604710
  38.8726449  75.6005669  17.2079384  38.7983227  76.0610151  18.6478853
  71.6749191  52.5102425  23.0418205  71.4587212  53.3412409  23.4648275
  72.6263046  52.4413252  23.1214881  60.0499058   0.9488209  70.2138186
  59.2296124   1.4095336  70.3901434  60.5100155   1.5094838  69.5891666
  25.7979321  51.7767286  36.3699937  25.4177403  51.6621590  37.2409463
  25.0499773  51.9741297  35.8062315   5.5733258  47.6788139  27.7911615
   5.1637536  47.2066975  27.0661855   5.6584686  47.0249939  28.4850669
  54.0321827  63.3219004  18.0734694  53.4922934  64.0785885  18.3018911
  53.6528969  62.9945087  17.2578788  27.8944039  51.8770742  46.0685349
  27.5145388  51.3032198  45.4032326  28.8287568  51.8978882  45.8616924
   8.1863374  41.8500566  45.2185917   8.3899587  41.0015345  45.6120110
   8.8668579  41.9770479  44.5575333  27.9158378  53.0693483   8.3689636
  28.7733316  53.4581852   8.5414124  27.5054502  53.0023909   9.2311299
  17.1466434  61.2693262  20.9503198  17.9094684  61.2572098  20.3722358
  16.9196665  60.3467369  21.0667300  27.4878216  64.9951935  32.4583554
  27.5399351  65.7455015  31.8662810  28.2918763  64.5029974  32.2926116
  68.7915850  11.1255682  58.9633894  67.8979254  11.2256777  58.6353779
  68.7381220  11.3782132  59.8850965  21.6491508  32.1511269  28.5796094
  22.4042058  32.7132010  28.4058356  21.7417359  31.4273381  27.9601049
  27.3042560  41.2568808  32.1217036  28.0882025  41.7269135  31.8375754
  27.0455241  40.7396078  31.3590002  32.9941964  47.5396776  34.8379898
  33.2192230  46.7777395  34.3040943  33.3055472  48.2886600  34.3297386
  26.5040350  52.8151226  30.3290796  25.7979131  53.0929804  29.7456264
  26.6074991  51.8802357  30.1515770  24.2277479  54.5679855  47.7030516
  24.9504209  54.7485209  47.1018982  24.0805435  53.6254454  47.6244020
   6.0684741  45.8093262  22.6567936   5.7106036  45.5806923  21.7989540
   6.8652540  46.3020468  22.4603295  24.4094419  69.2432690  12.7759039
  25.2153516  68.8012981  13.0431104  24.6379232  70.1727533  12.7662086
  85.1224804  73.0253363  30.1535130  84.9503899  73.1580639  31.0857153
  86.0427189  72.7648211  30.1145506  27.4546170  15.3901672  19.7301531
  27.6929808  16.0953581  19.1283894  26.6715455  14.9991250  19.3427014
  17.2517443  31.4867592  17.0848012  16.7361093  32.2768164  16.9230521
  17.4815595  31.5365314  18.0126691  23.8721037  44.9069595  13.6841333
  24.4612503  44.7206926  12.9530752  24.4396734  45.2750206  14.3613505
  81.7140961  58.7205791  34.4415331  82.0012283  59.5424652  34.0436792
  81.0823441  58.3609056  33.8188314   9.7766173  67.2578001  41.3098669
  10.1895893  66.5717077  40.7854939  10.2099490  68.0649090  41.0323238
  20.6820345  63.9185715  31.8273735  21.2269640  63.3252048  31.3104582
  19.8243415  63.4944153  31.8536019  18.2773340  52.7633762  61.9468260
  18.9314067  52.7112532  62.6437521  17.5259483  53.1933451  62.3552084
  81.7909908  56.1785555  16.9537187  81.5636635  56.2204790  16.0248518
  81.8692493  55.2427578  17.1391487  11.4960098  52.9088163  14.2593646
  10.8482599  52.3178291  14.6432745  12.0990050  52.3315525  13.7909627
  13.7304342  39.2681694  30.8539796  12.8107274  39.5328403  30.8360624
  13.7352192  38.3924341  30.4675865   0.0699730  41.3237667  62.0691919
  -0.5474751  41.1475468  61.3593102   0.8648691  40.8536625  61.8174553
  14.5970058  38.8975239  39.0761209  14.6052372  39.2571926  38.1891036
  13.7485087  39.1599131  39.4331026  26.0376668  49.9935007  16.9717801
  25.3326392  50.0153112  16.3247144  26.8396449  50.0699902  16.4548516
  28.3865714  44.9435949  30.6558752  29.2954206  45.0762939  30.9253526
  28.3133030  43.9993334  30.5172038   6.1009371  49.6696568  40.7256985
   6.8245327  50.0609207  40.2362537   5.4497117  50.3682470  40.7897902
  47.3302746   4.3113813   7.0633781  46.5852880   4.9114475   7.0973051
  47.3056984   3.8513699   7.9024357   0.5740223  72.8797007  36.9958520
   1.2579252  72.5426388  36.4171457  -0.1872089  72.9926205  36.4266348
  34.3047547  50.8484840   8.8597339  35.0736713  50.4620171   9.2788303
  34.6509099  51.2884188   8.0832893  28.1277084  36.5806293  25.6918335
  28.2386875  37.4692941  25.3539085  28.8948154  36.4376545  26.2462115
  10.6594908  62.1722651  22.5919557   9.7813022  61.8240166  22.7460361
  10.7817900  62.8265381  23.2798529  14.2579377  67.8421450   8.1665814
  14.9997270  68.4398746   8.0733186  13.5169029  68.3201265   7.7942520
  22.5786138  79.3434048  22.4378467  21.9078255  79.0158463  21.8386960
  22.5166368  80.2961159  22.3690271  73.6801052  45.3141499  41.4488268
  73.4617805  45.8215857  42.2305441  74.5556259  45.6145906  41.2050438
  16.4003432  66.2558079  55.9800863  15.5912817  66.6953325  56.2417507
  16.3033378  66.1164618  55.0380611   6.8395722  56.0447693  37.2255993
   6.4802873  55.3036213  36.7379045   7.0662278  56.6868877  36.5528870
  17.0606244  68.8449669  22.3341489  16.1884999  68.5091972  22.1270561
  17.3993087  69.1639996  21.4976430  27.0636702  44.5780134  34.7952938
  26.6992617  45.1307297  34.1039610  27.9353356  44.3414545  34.4783211
   6.4080149  36.0385990  36.7385936   5.6117117  35.8177829  36.2555075
   6.1251044  36.1012220  37.6508832   8.2274026  58.0045080  44.3377304
   8.9080352  57.5526476  43.8389397   7.7798951  58.5509443  43.6916828
  27.0211148  70.9190226  42.6597881  26.9099760  71.4822960  43.4256887
  26.3710928  71.2362432  42.0328331  18.7582242  67.5941801  24.3315792
  18.0669463  66.9972277  24.6179628  18.3596981  68.0999613  23.6233473
  51.7232323   6.1879915  23.6899662  51.8940258   5.6012934  24.4267488
  51.6714811   7.0587194  24.0841556  38.8840866  70.1866817  22.1063542
  38.9650416  69.2352343  22.0397973  38.0947828  70.3238392  22.6302028
  27.4029469  49.7811270  39.2315841  27.8767371  50.2918959  38.5751796
  26.5013528  50.0978851  39.1765618  31.0934281  60.6898737  27.7468014
  31.8618822  60.5196190  28.2915258  30.7103896  59.8256826  27.5961852
  47.5503445   0.7973807  21.9807100  47.9808998   0.0589815  21.5498710
  47.4790192   0.5313876  22.8974390  28.2844400  67.2774410  42.9911709
  27.7500057  67.8218317  42.4130297  27.7161551  67.0924807  43.7388849
  20.6915998  53.5540962  33.8727522  20.3555179  53.3184338  34.7374749
  20.2296567  52.9719782  33.2694435  24.0035295  53.4839678  43.3152008
  23.6913419  53.9745712  44.0755129  23.2609725  53.4802103  42.7111912
  40.2816963  76.2916422  37.5263858  39.5743895  76.4428234  36.8994141
  41.0716343  76.5832901  37.0712233  49.4054508  40.7773733  23.9040232
  50.0747633  41.0514402  24.5310330  49.7919655  40.0260353  23.4542036
  61.4462471  75.6514931  27.1203685  62.1481562  75.1779318  27.5668025
  60.6676006  75.1123524  27.2591710  12.1086752  51.3703394  34.9012399
  11.4723480  51.7831755  34.3173862  11.8354297  51.6357470  35.7793784
   9.4588578  58.9072514  21.6907978  10.0006461  58.9712429  22.4773121
   9.4726229  57.9770470  21.4655066  16.1886561  58.5168028  20.7314992
  15.2342725  58.4788465  20.7942986  16.3772023  58.3039093  19.8175204
  15.7116389  49.4628572  42.5506067  15.3425360  48.8877058  41.8803835
  15.0885558  49.4163179  43.2757521  43.4909868  73.5933542  62.5420141
  43.1095648  72.7214670  62.6447868  42.8567266  74.1820002  62.9512072
  40.3867722  56.5253019  36.9878769  40.3501558  57.0021343  37.8170466
  40.4646063  55.6061316  37.2434068  26.3859844  56.7261696  27.2152328
  26.8039513  57.5871992  27.2278953  25.7197404  56.7933750  26.5312505
  35.0676656  72.7391577  30.8987117  35.1065636  73.0189991  31.8132639
  34.2327905  73.0811262  30.5789042  22.2140002  79.6762037  37.6383543
  22.1563601  79.9928236  36.7368770  21.4011216  79.1892099  37.7736044
  24.5286441  62.1503210  39.6143389  24.4821668  62.9519224  40.1354027
  24.4392371  61.4435577  40.2536535  25.1278400  79.7091198  35.1345897
  25.7084918  79.3992281  34.4395781  25.7042789  79.8408270  35.8873200
  24.9096227  71.9471025  11.8981218  24.6916795  72.8219223  11.5765238
  25.8524251  71.9795370  12.0603061  43.4346962  73.4479666   8.4088427
  43.7353468  73.2375717   7.5247753  44.1894054  73.8635159   8.8259333
  26.3962126  61.3581085  31.7835331  27.3478723  61.4478064  31.7332506
  26.2572718  60.4957867  32.1751022  47.6352262  69.5783663  54.2692232
  47.2465944  68.7037230  54.2553473  48.3912134  69.4953537  54.8504543
  38.1549501  74.2037344  55.4383039  38.0990314  75.1265192  55.6864548
  38.6660075  73.7979460  56.1385822  25.4516244  42.1977711  25.1500487
  24.9382973  41.7149210  25.7978034  25.4699969  43.0960226  25.4802513
  17.1049905  79.4499445   3.7781718  17.4984562  79.3553495   4.6456212
  17.8033543  79.2063951   3.1705505  25.2895641  72.4601936  57.7916813
  25.6869030  72.8529692  58.5689068  24.9871230  73.2064867  57.2741795
  64.7344589  74.3310833  27.1419477  65.4200888  73.9315033  27.6771903
  64.7975731  75.2671814  27.3316050  39.1984987   5.7077777   5.3386253
  40.0121927   5.6259185   5.8360541  38.8305569   4.8241314   5.3341961
  41.1465073  69.1524649  44.0765524  40.5651808  69.1478872  44.8369932
  40.9106874  69.9481535  43.5995865  19.6697485  61.6547680  19.8428142
  19.6223879  61.8361473  18.9041495  20.5979538  61.4896059  20.0083089
  25.7887387  57.0764256  49.8857021  25.0331783  56.5863705  50.2100515
  26.5405440  56.5202332  50.0898266  39.9529672  67.5808668  29.3727422
  40.7278347  67.6541710  29.9299121  39.2397070  67.3821163  29.9793649
  52.3684740  75.1483154  30.1194167  52.9696846  75.0962782  29.3764019
  52.9352283  75.2984667  30.8760428  32.4123526  64.2694378  35.2665997
  32.9819584  64.0030003  35.9882617  31.6201162  64.5945549  35.6942582
  70.6369400   4.2116413  50.8433962  70.7749557   3.4222364  51.3668680
  69.7663832   4.5181555  51.0971832   9.8349839  62.0670366  47.2386551
  10.3121221  61.3177586  47.5952482  10.5148089  62.7100945  47.0373058
  68.2636309   1.5300627  47.2919512  67.6274061   1.0617868  47.8324795
  68.7981462   0.8399849  46.8991184  81.7399406   1.6943641  32.3135257
  81.8228912   2.4047104  32.9497313  81.3813305   2.1139209  31.5314770
  34.0107226  60.5792570  32.0154452  34.5308781  61.0405159  32.6734042
  34.5498276  59.8282385  31.7673111  53.7758017  63.1007910   9.9712360
  52.9248047  62.7829933  10.2729607  54.4115162  62.5312996  10.4045725
  70.5671740   1.3171722  14.6808267  69.9252176   0.6075656  14.7050285
  70.3108120   1.8966416  15.3982711  22.6847100  62.4240780  22.3577738
  23.0006909  63.3257484  22.4159336  22.1659875  62.3003244  23.1526589
  69.2864466  73.7324238  17.7171898  69.5162582  74.3874311  18.3762670
  68.5631132  73.2425499  18.1084013  23.4277487  51.9016695  16.1555052
  23.9488792  51.6162252  15.4050553  23.0475640  51.0951900  16.5037560
  31.0212088  51.6759729  25.9668612  30.6148553  51.7612362  26.8293214
  30.5285335  52.2782278  25.4093742  72.5402498  16.6421294  45.1217604
  73.0858183  16.0347152  45.6213951  71.7637491  16.1322415  44.8909092
  38.4682655  65.7401562  38.9170694  39.1140342  65.5075407  38.2499051
  38.9811373  66.1475468  39.6150875  41.8581581  61.7648745  31.5702796
  42.7313232  62.1513605  31.6369224  41.7353201  61.3059187  32.4012446
  30.8106995  71.4894390  26.9982123  30.7367516  72.3758888  26.6447067
  30.5276990  70.9214354  26.2816143  60.1382446   0.7289211  26.4275455
  59.9396753  -0.2053741  26.4899588  59.5700359   1.1386420  27.0798492
   8.3913428  60.4084206  39.3495393   9.3026853  60.2507353  39.1029143
   8.3694488  60.2577543  40.2945566  38.5250139  57.1290064  23.5354662
  37.7786350  57.5061178  23.0697012  38.5304713  57.5767517  24.3814707
  37.4527502  55.4269123  26.4613700  36.5422797  55.4987669  26.1748242
  37.9069328  55.0291300  25.7185912  45.5998755  56.8715858  23.9672160
  44.6545458  57.0215559  23.9769983  45.8031940  56.6842699  23.0508041
  19.4128394  67.7682781   5.4647952  19.2506039  67.5094891   4.5576352
  19.6050704  68.7047100   5.4159999  11.7434502  60.1747322  59.1195583
  10.8393741  60.0575304  58.8277674  11.9548762  61.0788679  58.8870239
  44.2662382  74.8388481  27.0229697  44.5277357  74.0417051  26.5620875
  45.0899172  75.2908421  27.2059846  26.9145083  58.1335258  19.0800297
  26.9090056  57.7889967  18.1870008  27.6956058  58.6854315  19.1190171
  20.1500249  47.7132702  25.4662609  19.2267144  47.9309940  25.5940318
  20.1384211  46.9499302  24.8888397  24.2621160  69.1131783  27.5774884
  23.5098648  69.0849638  26.9862556  24.6073771  68.2204580  27.5685668
   3.5643479  57.3336744  46.0930014   3.5506025  56.4261580  46.3970613
   4.3113127  57.3749161  45.4958630  23.3823013  64.3891335  25.4042125
  23.3001018  64.7225904  26.2976813  23.8517547  65.0779629  24.9337268
  64.0070772  57.5791597  21.9354916  63.2166052  57.3850632  21.4317918
  63.8348341  58.4332561  22.3318338  37.6843953  67.6540709  25.2924919
  38.2438111  67.2025681  25.9244967  36.8069911  67.6060820  25.6720901
  38.9839530  57.1422672  27.8626728  39.2789650  56.6723537  28.6426592
  38.6691737  56.4559698  27.2743320  22.1895194  74.7849655   8.2688439
  22.5680518  73.9225674   8.0979449  22.1670508  75.2107716   7.4118614
  58.2451296  54.3381977  16.0747683  57.9151964  53.6434031  15.5050004
  58.3801317  55.0837469  15.4898214  29.1613388  62.8951693  35.3868842
  29.2281771  63.7139463  34.8955941  28.8074708  63.1545162  36.2376189
  51.0253096  69.5630026  40.8017254  50.6686735  70.4051208  41.0843420
  50.3701544  69.2166233  40.1958942  20.8651161  55.5785036   8.8675600
  20.5056810  55.3998423   7.9985845  20.7642365  54.7536945   9.3426931
  11.9542754  76.2273264  11.4698374  12.7736497  76.2895632  10.9789360
  12.2008801  75.8109045  12.2956777  28.1482697  62.0607615  24.8754883
  27.4223828  62.4123335  24.3600154  28.2424355  61.1578941  24.5718503
  55.7567358  66.1760330  19.4696462  55.6794691  66.5644550  20.3410769
  55.3576946  66.8197203  18.8842714  70.1627016  79.1528463  23.7165880
  70.1822424  78.2425976  24.0120363  69.2657280  79.2859745  23.4100842
  51.1726284   9.8400480  37.0857382  51.6182041   9.1383237  36.6111040
  51.7751360  10.5822396  37.0370913  71.7598820  12.1947968  21.4523911
  71.1878967  11.4396119  21.5893817  71.5691471  12.7763462  22.1883631
   9.0180755   8.6404127  33.9208126   8.9787680   9.5618671  33.6646724
   8.8376427   8.6452162  34.8608398  22.3302913  74.3062019  17.3217082
  21.8656492  73.4724331  17.2498155  22.9894495  74.2736197  16.6283965
  23.2787752  63.0359554  15.3152859  23.7481737  63.1478310  14.4886172
  22.3953271  63.3569479  15.1344168  54.0351057   4.9728543  23.1989360
  53.8704300   4.0374506  23.0800462  53.1648207   5.3582430  23.3005190
  76.4399624  16.9669402  26.6308832  75.6824255  17.3311532  27.0888376
  76.0639954  16.3770938  25.9774590  58.9171982  75.9411430  33.9712715
  57.9776859  75.8596277  34.1352987  59.3282986  75.4585505  34.6884418
  21.5034866  57.6041555  24.8290253  21.5714788  58.1521940  24.0471911
  21.0724020  56.8054581  24.5249128  11.7306626  55.8994627  37.7482057
  12.1176314  55.1115751  37.3664689  11.4890015  56.4371395  36.9940639
  18.9853823  65.8965015  42.7782774  18.8543415  66.4531040  43.5459042
  18.4124959  66.2719011  42.1096182  30.0687313  55.0262070  36.9496775
  29.1682386  55.3406906  36.8694067  30.5988979  55.8226538  36.9785476
  16.4033806  47.8309059  39.8329234  17.3136592  47.9869461  40.0844717
  16.1377621  47.0725727  40.3531218  34.6954513  73.8183260  27.2259498
  34.3703318  74.2434502  28.0195451  35.4892373  74.3041134  27.0020223
  48.6086321   9.7437012  11.3023102  48.1159735   9.4127160  10.5513322
  48.5889816   9.0269184  11.9363987   5.3905535  79.7699022   4.4634101
   4.7943413  79.0282631   4.5670152   5.1689905  80.1376343   3.6078888
  43.2751513  68.7073517  37.1365762  43.3909845  69.2960310  37.8824115
  44.0383959  68.8699865  36.5822816  25.7677889  47.9058266  23.2857823
  25.5102372  47.0941925  23.7229919  24.9505830  48.3943081  23.1868196
  15.1595902  70.6492519   1.0260828  15.3620136  69.8185778   1.4564767
  14.2226470  70.5988503   0.8367945  29.2407703  39.4215035   4.3142951
  29.8229146  38.6917686   4.5260164  29.0938115  39.8613811   5.1516378
  26.2829518  45.8341312  32.5810504  25.4299736  46.2359953  32.4162269
  26.7304516  45.8666897  31.7355227  85.0064278  53.9393377  52.6671982
  84.5687771  53.2566738  52.1586037  85.9393215  53.7459087  52.5748444
  47.4483395  69.9319220  26.6616988  48.2371283  69.4800091  26.9614029
  46.7261219  69.4214582  27.0278335  26.1351585  32.0848465  19.3497646
  26.4988041  31.3227415  19.8005307  25.5041480  32.4510717  19.9693906
  20.6803417   8.7516475  49.2492151  20.0804973   8.1172037  48.8569117
  21.2683606   8.2233095  49.7889614  33.0444074  69.9899101  55.3358555
  32.1362138  69.7104216  55.2204990  33.1136084  70.7962799  54.8247623
  31.6323614  41.0377026  27.3977113  30.8316374  40.9008121  26.8914151
  31.5569997  41.9330835  27.7276254  81.8079376  69.2208099  36.0386157
  81.0144997  69.4861984  36.5036416  82.0139408  69.9647045  35.4725599
  14.9725187  69.4688129  34.0178347  14.8426139  70.0225782  34.7877049
  14.9802816  68.5762024  34.3634057  35.1574850  76.4420986  15.3136122
  34.5068240  77.1433449  15.2800906  34.7497344  75.7624817  15.8503544
  29.5211530  63.2863092  32.1324182  30.3513098  63.3617592  32.6029253
  29.6268582  62.5094938  31.5832186  32.1082067  48.6820984  23.6292338
  32.3209405  48.7603855  22.6992607  31.4464116  49.3567657  23.7811661
  37.0379519  64.4544935  25.0669909  36.6535187  63.7036848  24.6145201
  36.4919043  65.1963186  24.8066711  29.6675658  72.0945883  50.0609016
  29.1497588  71.3725328  49.7048807  29.8675108  71.8264961  50.9577751
  29.9420333  49.4196892  31.2092137  29.4062781  49.1111279  31.9399595
  30.1620936  50.3226900  31.4381123   5.9562111  77.5985909  23.7562728
   5.8746177  78.5457468  23.6445975   5.1185858  77.2485971  23.4527612
  25.2953196  71.1506224  35.4164648  25.0923634  70.9833956  34.4960976
  25.8553362  71.9267464  35.4010510  22.0467305  48.9268160  30.4190016
  21.5448618  48.8491440  29.6076274  22.9421735  49.1037989  30.1307487
  42.8059959  71.5421724  35.9471011  41.9694614  71.6591835  36.3973832
  42.6651907  70.7902527  35.3717613  35.2930498  76.5498304  42.3098421
  35.7348323  75.7020330  42.3577785  34.3709230  76.3320494  42.1738672
  80.3671551   2.0764497  13.7965417  80.9135151   2.5424522  13.1636357
  79.5532942   1.8984804  13.3251750  29.1234112  49.1085100  35.5043173
  28.2463861  48.9315796  35.1640916  29.0434599  49.9549341  35.9440970
  62.2231054   5.1001334  40.3776646  62.9196119   5.2230835  39.7326922
  62.4369240   4.2712611  40.8060169  56.1269140  70.0428343  26.8102241
  55.3259468  69.5214033  26.8630672  56.0322952  70.5458784  26.0013795
  23.6792183  69.0040064  36.1151528  23.9486051  69.8628902  35.7896018
  24.4119334  68.4263039  35.9015656  79.8996258  24.8562813   5.1028907
  80.2328587  24.1199946   4.5899859  79.8411512  25.5776119   4.4763976
  27.7637410  52.9555178  26.4826512  27.6728368  53.1892681  25.5588937
  26.8703604  52.7696514  26.7717147  26.7420912  58.4166098  63.0308580
  27.1949577  59.0169048  63.6231279  26.1341858  57.9375982  63.5940886
  45.0875473  63.7517405  27.7110291  45.1888418  63.9255762  28.6468434
  45.8084154  63.1590843  27.4981022  14.1174102  75.9940624  32.7192163
  14.0160739  75.5555630  31.8744206  14.8118520  76.6365814  32.5737882
  67.5570917  14.8827648  44.5034552  66.7409706  14.9260867  44.0051556
  67.2792673  14.8924673  45.4193974  25.0096726  59.2459059  32.8377652
  25.2704167  58.3253002  32.8107500  24.1019106  59.2289352  33.1409359
  10.0989842  12.0037472  27.4089742   9.1572386  12.1709120  27.4464393
  10.3413081  11.7952371  28.3112121  39.6334171  52.9371834  27.3763132
  39.8698235  53.5919952  28.0332470  40.3629780  52.3175573  27.3824143
  30.8319926  57.7516222  34.3329144  29.9021077  57.9707718  34.2735720
  30.9034109  56.8946838  33.9124560  39.2153478  61.7620230  17.6390982
  39.3377399  61.8951988  16.6991436  38.7337065  62.5363827  17.9300034
   7.8584582  21.6428757  60.1232386   8.0130035  20.7338667  59.8662329
   8.6977416  21.9378972  60.4765034  33.4258223  75.1818562  29.2877173
  33.6365175  75.8128548  29.9759603  32.6013470  74.7859097  29.5700240
  47.3002100  64.6278429  33.3740997  47.7109957  65.4461813  33.0951619
  46.5460348  64.9038029  33.8949633  39.9855256  61.0086012  42.5025272
  40.9234571  60.8185959  42.5227594  39.6309090  60.3960848  41.8580914
  85.6242943  49.3463898  34.2231894  85.5731487  48.4476805  34.5486689
  86.4315128  49.6931648  34.6031690  64.9805784   9.9575418  66.1774540
  65.5473423  10.7257056  66.2476873  65.1746321   9.5949364  65.3131104
  16.8486094  65.9088373  37.0826411  17.2060049  65.1802063  37.5901842
  17.3794961  66.6627836  37.3394680  22.4388003  50.8957720  23.0174088
  22.4653482  49.9527121  22.8556442  21.5225601  51.0771704  23.2267690
  40.8078241  73.3805227  30.1830292  40.4517174  74.2559385  30.3348947
  40.0854445  72.8935814  29.7864389  35.5695176  61.4600182  25.1033187
  34.8112226  60.9791899  25.4350162  35.1942086  62.2064257  24.6361423
  30.0249529  48.1980467  37.9006767  29.3197989  47.8927469  38.4714484
  29.5783114  48.5069180  37.1124244  21.8139124  41.0281706  35.5246592
  22.7248287  41.1386871  35.7971478  21.8140936  40.2210855  35.0100327
   8.9125621  24.8664618   8.3454400   8.7730950  24.8916101   7.3987889
   9.5351785  25.5735254   8.5146767  64.6541977  60.5492783   6.0867572
  65.4550791  60.1077747   5.8040935  64.2407799  60.8392334   5.2735889
  26.3359857  48.1103039  35.3268838  25.6085372  48.6856365  35.0901484
  25.9249067  47.3865509  35.7995653  64.8166656  35.9389377   6.7563844
  64.9060965  34.9872351   6.7063999  64.1246271  36.0808802   7.4022698
  49.1423035  66.0057068  21.1884642  49.7594404  65.7899952  20.4892921
  48.4943485  65.3016710  21.1616564   7.9991060  62.1231508  31.1472344
   8.0105573  62.2098494  32.1004319   8.6725944  61.4698076  30.9580517
  48.4245872  73.6501360  38.8758183  48.1668425  73.9546680  38.0057240
  48.7540436  74.4336987  39.3159556  31.0300088  65.2089739  10.9141004
  31.5117121  64.4066906  10.7127631  31.4441156  65.5437565  11.7095041
  23.6450577  54.6893024  17.1394289  24.2104506  54.5334530  17.8959155
  23.7864780  53.9298534  16.5742147  20.1377130  73.2947969  48.9870834
  20.9445477  73.3513832  48.4751797  20.3747559  72.7680111  49.7503233
  13.4530973  70.0761080  66.6649389  12.6420844  69.7262478  66.2960386
  14.1375899  69.4956970  66.3320351  13.8512349  57.9062986  36.4375734
  14.4079959  57.3644066  36.9966769  14.0653920  58.8055897  36.6858697
  50.7604504   8.0064094  21.3375807  50.9777451   7.1856517  21.7795873
  50.0269651   8.3618361  21.8394828  11.6248858  63.1885815  31.7123485
  10.9930968  62.9329777  31.0402322  12.3263896  63.6243057  31.2283349
  33.1280661  54.4380999  32.6930857  33.6252213  54.9004745  32.0183420
  33.6861920  54.4756460  33.4698200  20.4079819  58.8044214  32.8750181
  20.4036379  57.8629494  32.7022481  21.1188889  58.9292812  33.5037088
  69.2980576  58.5876656  23.0815053  70.2355909  58.4090996  23.1548452
  69.0734100  59.0286160  23.9008522  45.9335566  69.0260506  11.7498434
  46.3566208  69.4365597  10.9957004  45.0036907  69.2251444  11.6405797
  44.0745449  58.0948400  27.7800560  43.5193968  57.4593496  27.3281741
  43.4666538  58.6083651  28.3120251   9.8879188  63.6191416  20.0356150
  10.2975488  64.4463921  20.2887845  10.4426527  62.9464483  20.4305625
  40.3221512  54.2575121  45.3565216  41.1561012  54.6650124  45.1226282
  40.4398489  53.3317661  45.1434994  30.3080297  47.6397514  25.3292751
  30.7645917  47.7784920  26.1590552  30.8847833  48.0271626  24.6708679
  24.0515184  51.0816574  33.2496953  23.5865593  51.8206453  33.6420488
  23.7855029  51.0922050  32.3302627  11.9549036  60.6331587  32.7265334
  11.8920922  60.7147169  33.6781812  11.9320703  61.5350962  32.4068189
  29.2635989  71.0102367  39.0527916  28.3619452  70.7332373  38.8899302
  29.6346307  71.1430359  38.1804776  37.4629259  63.4233522   8.2116407
  37.9847217  62.6208925   8.2161206  37.1770716  63.5180998   7.3030478
   6.5227312  74.5143938  11.7038143   6.6779768  74.1407013  10.8363545
   5.7378209  74.0671825  12.0202827  26.3626099  76.3133860   1.4441103
  26.8905163  75.5922699   1.7869505  25.5906248  76.3350248   2.0096210
  33.4558725  73.6086416  21.7091942  32.6515532  73.9223623  21.2958145
  33.6812043  72.8153181  21.2232971  11.9840086  43.2723093  35.1773334
  11.0340500  43.3404684  35.0815988  12.2191668  42.4885607  34.6806741
  46.8941498  72.7492619  30.5959463  47.2457075  72.6507521  29.7111082
  47.6681232  72.8030443  31.1565685  42.8363180  44.1463470  19.7584188
  42.3266220  43.3370352  19.7202849  43.2483578  44.2107201  18.8968432
  41.3519812  60.3117514  38.6244988  41.2711048  59.3865919  38.8563776
  40.5644131  60.5005312  38.1142759   9.1031885   4.3813059  36.3018847
   8.6067134   4.5650667  37.0993662   9.8629999   4.9611518  36.3538146
  13.0310285  70.5432606  24.8625612  13.4254730  69.7649240  25.2560616
  13.7376344  70.9372854  24.3510103  45.9444237  10.8997679   9.1272861
  46.4048815  10.0667524   9.0258121  45.0172043  10.6697690   9.0672642
  64.7192144   7.3971069  17.5950909  63.9214516   6.8689203  17.5663459
  64.8505116   7.5822419  18.5249925  33.7242174  68.6178160  37.9100227
  32.7725458  68.6500502  37.8124857  33.8634872  68.2258081  38.7720919
  31.8958449  48.2664347  27.6107478  31.9542265  47.9985476  28.5278392
  32.3952699  49.0818548  27.5671554  28.2755518  56.4793348  23.1091976
  27.4760008  55.9536743  23.1343985  27.9715943  57.3692417  22.9305887
  30.5392742  34.6810246  18.9998424  29.6178460  34.6428323  19.2562473
  30.9079862  33.8529539  19.3073845  36.7909837  70.7412720  20.4782224
  36.4606380  70.5700016  21.3601351  37.7286506  70.5570602  20.5337214
  44.1785097  63.1063223  31.4626360  44.1710901  64.0121078  31.7720294
  45.0800610  62.9580927  31.1772060  43.3747005  71.3737774  26.7172122
  42.7984238  72.0342255  27.1018410  43.8684559  71.8473530  26.0477614
  16.1434555  63.1972027  41.1690283  15.9390533  63.9610767  40.6296349
  16.9869184  62.8888655  40.8377743  17.9484606  57.9018545  48.6294127
  18.6502707  58.3269167  49.1223812  17.7951479  57.0783710  49.0926600
  18.6555421  60.7121372  29.3234205  17.9185522  60.5764198  28.7278891
  18.9530373  59.8288679  29.5415187  20.8997631  72.2116613  26.5140843
  19.9912179  72.2109652  26.8153811  21.3679314  72.7331018  27.1661186
  63.9575768   6.2610584  45.2361917  63.8531542   5.3459108  45.4966402
  63.9994049   6.2347484  44.2802668  30.9154940  71.1207581   9.5916772
  31.8376923  71.1555052   9.3375611  30.6529665  72.0381975   9.6665919
  47.7537918  56.3736916  14.9486852  48.2661152  56.9337273  15.5318785
  48.4044695  55.9588289  14.3823493  22.7292204  59.6254396  34.4784665
  22.7505350  60.5097342  34.1126704  23.2735109  59.6780443  35.2640939
   4.9484348  39.5902944  60.9301662   5.6661028  39.2690992  60.3842592
   5.0641829  40.5403805  60.9432936  45.1805305  66.7521811  13.5604024
  44.2329597  66.8443632  13.4611857  45.5462599  67.4735308  13.0484128
  60.5099964  49.2844057  13.4591103  61.2933350  48.7777567  13.6734092
  60.8294439  50.1780701  13.3344209  58.6690187  72.7599287  22.6885796
  57.8412390  72.2977734  22.8205872  58.7084866  73.3906603  23.4075046
  50.5967379   3.7909093  64.7272491  50.2023029   3.1538150  65.3228664
  51.1314487   3.2642761  64.1331339  66.6205549   1.6311674  12.7982080
  66.4569235   2.4875303  12.4031126  66.2475920   1.6977426  13.6772406
  10.1786876   4.3541268  57.7594900  10.3571010   5.2777296  57.5824070
   9.9122971   3.9950854  56.9131088  31.0294962  66.9925499  42.3014736
  31.5814233  67.2685051  43.0332232  30.1983070  67.4452448  42.4443769
  23.3641028  58.4351015  29.9054432  24.0514708  59.0989780  29.9604249
  23.0855250  58.4540272  28.9898729  55.2323246  42.9944515  22.2315574
  54.9196100  42.2592449  21.7043781  55.7631779  42.5889206  22.9171014
  32.8896666  70.5897141  31.9858837  33.5201812  69.9858952  32.3784280
  33.0506706  70.5255222  31.0445070  23.6047292  69.3435240  30.2390814
  24.1488409  68.6536503  30.6188822  23.5903645  69.1486406  29.3020391
  24.4406319  50.8404970  13.8321519  25.3662753  50.6881571  13.6418676
  23.9903069  50.0877428  13.4490144  23.4820247  53.8014603  34.7231007
  22.6285195  54.1383266  34.4505596  24.0318012  53.8833666  33.9438272
  71.7771578   0.6839386  43.9922714  71.2993193   0.2558665  43.2818794
  72.6791477   0.7369930  43.6763144  52.9158831  14.6750426  26.0757422
  52.6127005  14.6358097  25.1686740  53.7997961  14.3086982  26.0488939
  72.9766130   5.7481200  42.0129490  73.7340403   6.2342215  42.3388958
  72.2204971   6.2280947  42.3508024  40.0863075  65.4176569  41.5028954
  39.9711275  66.3647842  41.5798187  40.1259804  65.1069641  42.4073982
   8.5657442  80.9656715  20.0056982   9.2195934  81.4238548  20.5337024
   8.8780415  80.0615883  19.9692905  64.4013596  24.1592574  41.8731737
  64.0751886  23.4281158  42.3978424  63.9776134  24.0508771  41.0217476
  37.9556489  70.5225468  25.5298901  38.2289338  69.9416304  26.2398791
  37.4487424  69.9614429  24.9430013  65.3015947  14.5596230  27.8920245
  64.5210028  14.0717208  27.6296186  65.1501703  15.4469085  27.5664091
  35.9417701   1.2381728  21.9068098  36.0599232   2.1647723  21.6977978
  36.2729740   0.7749675  21.1374092  22.5420547  74.7078609  27.1563077
  22.1283293  74.8972797  26.3141775  22.2489882  75.4146194  27.7314949
  28.4002566  55.4730129  50.3822470  29.2423749  55.8710337  50.6028080
  28.6208844  54.7666550  49.7751093  72.5622320   3.5034820  22.2386789
  71.6765356   3.8648134  22.2735214  72.6569462   3.0219069  23.0604744
  67.2817755   4.2840204  16.9917607  67.1736765   4.8874766  16.2566507
  67.9709864   3.6830088  16.7089081  24.4354820  60.3334475  48.9265966
  23.6412597  60.1858568  49.4400740  25.0187778  59.6167660  49.1763258
  29.5455599  80.3431606  20.4188418  29.8431563  81.0195255  19.8104036
  30.3241467  80.1208687  20.9293556   2.8271723  12.2944975  29.0983868
   2.4512966  12.9096162  28.4686422   3.5393924  11.8685985  28.6213279
  54.5272350  65.1380682  29.8580718  55.1017046  64.7049475  30.4894376
  54.0649080  64.4211817  29.4238353  66.0083866  11.1910307  22.4212551
  65.2056313  11.4448273  22.8766704  66.2624502  11.9724214  21.9302225
  56.7764807  45.4160547  69.5809603  57.5144100  45.4268980  70.1905298
  56.2706566  44.6428299  69.8309469  48.6483574  62.3931170  32.4396133
  48.3785295  63.3025122  32.5677800  49.2497015  62.2174454  33.1633210
  44.9422121  74.9119663  10.7970071  45.6068802  75.5766964  10.9774983
  45.4417038  74.1118050  10.6342864  17.6369166  77.3272276  30.5309200
  17.8209484  77.8599119  31.3046169  17.8923321  76.4402723  30.7845140
  62.0766878   1.1778645  24.0928674  61.4491701   0.8094792  24.7147608
  61.6914034   2.0139691  23.8307285  36.3296866  60.3053236  40.6230021
  37.1409345  59.8357201  40.8168650  36.4447856  61.1620617  41.0340786
  78.4522247   1.7079161   3.6344555  78.1361294   1.8256582   4.5302528
  78.8905907   2.5326085   3.4248132  38.4349728  62.9851913  44.0643597
  39.1130018  62.3574638  43.8144302  38.7384725  63.3466816  44.8970938
  62.4517536  10.8816946  15.6362665  63.3570004  10.7070386  15.8936560
  62.4140644  10.6365657  14.7117543  82.0665741   9.0643013  59.3226147
  82.2287273   9.9981582  59.1890097  81.7220974   9.0061122  60.2137852
  68.6192608  21.0451269  38.2672477  69.0296221  20.3031206  38.7113857
  69.3402100  21.6516900  38.0982947  74.6547365   8.4491289  19.4667745
  75.2711010   8.0420518  20.0755548  75.1377583   9.1869032  19.0944731
  81.4337254  75.9443474  43.9304590  81.2527180  76.2786722  44.8089218
  82.3553658  75.6872463  43.9572334  58.8568354  10.2640808  51.8103838
  57.9276276  10.4817903  51.7368460  59.2822313  10.8007562  51.1416149
  37.4605393  79.9288225  15.5996299  37.7705002  80.6895638  16.0909879
  37.2066617  79.2966175  16.2720048  68.1230307   4.4149590  52.0210314
  67.6893091   4.0466014  52.7907276  67.5654554   4.1587859  51.2863779
  57.5757980  16.2297928  27.0712924  56.7052412  16.5747607  27.2696757
  57.6189661  15.4004371  27.5472498  57.5383472  81.1600494  32.9339600
  57.9565954  81.2022305  32.0740056  57.9994678  80.4562283  33.3902955
  25.6133270  78.7824631  40.2761841  24.8139501  78.7531137  40.8018875
  25.5317235  79.5849371  39.7608042  72.7769566   9.8644108  37.2246122
  72.5710058   9.1728896  37.8535891  73.0932570   9.3979973  36.4508915
  77.8498077  12.1067953  34.4049859  78.2938766  12.4088609  33.6126542
  78.5489368  11.7404425  34.9464989  64.8023367  10.6897485  11.6049802
  65.3067923  11.2575817  11.0224676  64.9326468   9.8091900  11.2530327
   1.9698520   3.4836674   6.1848336   1.8375222   2.9052445   5.4337358
   2.1190070   2.8901553   6.9208556  32.8024316  59.2565632   8.0025506
  33.3239818  59.2795372   8.8048524  33.3283949  58.7428808   7.3895913
  53.1034279  72.9210854  20.5667377  52.5831127  73.6581039  20.2468824
  53.7997723  72.8199959  19.9178040  45.2593184  80.1222801  25.6393337
  44.3946362  80.5035686  25.7915521  45.8238554  80.5421448  26.2883711
  18.8555586  74.6018744  20.7502484  18.7868607  75.4539537  20.3195810
  19.7775638  74.3612623  20.6594586  53.9991236   8.4424686  16.6619444
  53.4706306   7.6460510  16.7133558  53.5474443   8.9885271  16.0184872
  59.8322439  22.5687861  36.6672325  58.9355707  22.5167465  36.9981313
  59.7485304  22.4239731  35.7247615  63.7447596   2.5099975  52.8580236
  63.4579802   3.3854261  52.5979948  63.2727194   1.9191799  52.2712135
  66.3654613   0.9440154  50.6508970  65.4719591   0.6216016  50.7689476
  66.9146299   0.2933009  51.0881805  72.5431871  15.6287253  29.1027474
  71.9001627  15.6468749  28.3939314  72.0660400  15.2675080  29.8497987
  36.5004802  57.3150349  28.9112306  37.2951174  57.3970079  28.3839130
  35.7863331  57.4788904  28.2952952  19.7845614  68.0035448  48.8058853
  19.0606213  68.0719662  48.1834221  20.2925396  68.8036013  48.6713457
  50.3803158   4.7196686  36.8989992  50.9033775   4.5078981  37.6721692
  49.9625492   5.5537367  37.1135545  34.4438577  68.9905453  25.0860834
  34.2967439  68.7528276  26.0015512  33.5907984  69.2965126  24.7780156
  44.0749836  71.4851332  31.2605572  44.4084740  71.6617775  32.1402216
  44.0235615  72.3465824  30.8464408  68.4375858  13.1172943  21.0400867
  68.7354326  12.6599431  20.2537346  68.6769915  12.5349212  21.7610288
  82.4673843   5.8643836  11.0189116  83.2229328   6.2744844  11.4398456
  82.6076984   6.0075361  10.0829351  67.6003647  16.3894665  25.4102373
  67.8240442  17.1396685  24.8594236  66.7805910  16.6407239  25.8357668
  43.8891649   2.5763509  26.9779444  43.1234694   2.1716422  26.5703249
  43.5364532   3.3237594  27.4608612  54.0138578  56.6386986  20.6958199
  53.7111616  55.8370590  20.2692270  54.0293169  57.2913647  19.9958050
  11.5846264  26.6202259  67.2523308  11.0935640  26.1713910  67.9405403
  12.2978747  26.0195088  67.0363569  15.7147884  13.7133682  33.8801146
  15.5901456  12.8769600  33.4316540  15.5232441  13.5235715  34.7985482
  68.2234573   3.8523528  44.2073202  67.8235006   4.5532608  43.6925459
  68.2154799   4.1809651  45.1063108  66.6375399   5.8729547   6.3982743
  66.3211584   5.3019935   5.6981766  66.6931725   5.3030986   7.1653473
  35.3917813  58.4427738  31.1672068  35.9312248  58.1054163  30.4520679
  35.9582686  58.3956385  31.9373369  25.1430964  74.9124956  28.8114166
  24.3225431  74.6789312  28.3773994  25.1780176  74.3430996  29.5800495
  55.3116798  66.1238384  35.5916023  56.0347366  65.7220697  36.0732675
  55.6974554  66.3870478  34.7560596   3.1625989  19.3434775  39.7760129
   2.3225912  19.3475270  40.2349281   3.6395067  20.0879550  40.1428175
  83.9298058   6.4266115  47.2289324  83.2640457   5.7406157  47.2779274
  84.5369720   6.1233467  46.5539455  75.9714460   0.1567547   3.9111716
  76.1494207  -0.1551566   4.7984529  76.6334677   0.8306669   3.7568989
  77.5135612   3.1743947  41.6034651  76.9242001   3.7897995  42.0395422
  77.2444057   3.1948310  40.6851149  42.1858215  65.0101566  26.7489576
  42.9545879  64.7607422  27.2618055  41.6676092  64.2076445  26.6884398
  58.2289505   2.7766395  47.2324276  58.7530422   2.5748116  48.0075550
  58.5849857   2.2096750  46.5483046  55.8357668   7.4723583  45.7917595
  56.7019844   7.0815086  45.9063625  55.8612919   7.8588367  44.9164200
  78.8369036  17.2639370  15.7409418  78.7508106  17.1352088  16.6855311
  78.2528543  16.6105556  15.3559589  64.5980835  16.3646054  25.7891560
  64.0143776  15.6246841  25.6217098  64.6993017  16.7875695  24.9364614
  29.9348879  69.7561884  24.8346162  29.3909287  69.9053669  24.0612555
  30.7673049  69.4389486  24.4843698  48.6107635  79.7725964  15.9202600
  49.5270824  80.0341415  15.8297753  48.2345915  80.4201889  16.5163708
  34.3996239  49.3247032  25.2011347  34.1693139  49.6810961  26.0591412
  33.5584641  49.1846609  24.7663140  49.8830700   7.1666461  40.4857349
  50.0303173   6.2929398  40.8479357  49.1005945   7.4840534  40.9365273
   8.7338722  69.0194559  18.0043805   9.4675434  68.7136507  18.5377097
   8.6535263  69.9490356  18.2180548  67.0896578  21.3769054  30.7033300
  67.4944019  21.4558864  31.5671444  67.8208399  21.1998415  30.1115131
  45.4754734   5.7666761  20.5702066  45.8554173   4.9157205  20.3516912
  45.4107046   6.2226492  19.7310841  21.1877513  68.2979870  36.4687014
  20.6543565  68.9402151  36.0004473  22.0835900  68.6249638  36.3863111
  38.1482577  80.5524158   3.8548592  37.7402401  80.0901508   4.5870274
  38.9398861  80.9403229   4.2277962  55.7499790   4.5656106   9.6573418
  55.1273346   5.1822883   9.2723030  56.5927267   5.0173646   9.6134883
  41.6149902  70.1659203  20.7376170  42.1130848  69.7453785  21.4385271
  42.2614288  70.3339767  20.0519729  13.3211792   1.3273329  42.0373344
  12.9759634   0.7179569  41.3848639  13.5208094   2.1213807  41.5414858
  26.5267777  67.5513792  36.0221672  26.8293738  68.0053568  35.2356744
  25.8914995  66.9118929  35.7001233  80.3972912   3.1157911  29.6847939
  79.5054913   3.3629152  29.4401431  80.8354473   3.9475462  29.8649025
  77.4067736  75.8434057  45.0076532  78.2802486  75.9718418  45.3774929
  76.8553543  76.4737177  45.4711962  76.5027666   6.6527456  22.2279644
  75.5966663   6.3508737  22.2918868  76.8914700   6.1016327  21.5486884
  60.0325012  14.0925741  29.1961718  59.0950346  14.1733062  29.0204835
  60.2866697  14.9495113  29.5386481  65.0686073   3.4575981  27.9383111
  65.1303339   3.9044040  27.0940447  64.3488979   2.8361750  27.8283668
  35.1021862  73.2647705  33.5767412  34.6116209  72.4693489  33.7838316
  34.5745730  73.9739990  33.9439631  69.0050268  62.9454470  12.4095833
  68.4033346  63.5407877  12.8565359  69.7132683  62.8044653  13.0378735
  82.5530338  52.2748995  69.6025085  82.8755665  53.1759596  69.5853567
  81.8054295  52.2994375  70.1997662   5.2653438  25.7312727  40.4563332
   5.1099455  24.8518848  40.1117229   4.9760506  26.3171983  39.7568798
  54.0695238  27.2023869  19.6765804  53.6943769  26.6394424  20.3537703
  53.7419653  28.0775356  19.8840785  58.3821154   3.0627367  24.4625115
  57.4304628   3.1017488  24.3672681  58.5209417   2.6330826  25.3065228
  41.4583063  73.9759207  12.8334284  41.9787359  74.5317507  12.2533953
  40.8851433  74.5853996  13.2984567  80.1776123  13.5163414  12.8690541
  79.3735933  13.1699526  13.2560968  80.6267262  13.9478934  13.5958910
  32.5538921  74.6100473  32.5138068  32.0826030  74.9050426  33.2929730
  31.8688416  74.2929745  31.9252491  42.3473692  54.2622185   6.2437427
  42.8808498  55.0480747   6.1251807  42.5410700  53.9735413   7.1355832
  43.7812328  75.6439018  16.2122524  43.1104994  75.5316353  16.8858588
  44.2089987  74.7894907  16.1554432  43.1932783  70.1468658  10.7557487
  42.8026152  69.2799902  10.8659661  42.5058365  70.7555294  11.0262752
  46.5484953  71.4411020  42.4920177  46.5671873  72.2096634  41.9217587
  46.2903309  71.7839289  43.3476210  21.1508417  76.0249949  25.3738165
  21.6619253  76.8339825  25.3499794  20.3637695  76.2238979  24.8666811
  62.6851034  79.4217634  45.9580088  62.2702312  80.1433277  46.4307261
  62.7849245  79.7474670  45.0634766  49.4625711   2.2620583  36.0142112
  49.1202402   2.0898369  36.8913531  49.6941328   3.1907570  36.0255575
  40.2389479  50.5898333   5.4918832  39.7799063  51.0856438   4.8138818
  40.5063009  49.7801638   5.0569195  31.4005995  68.6431551  28.5846353
  30.7861948  68.5854864  27.8529143  30.9469318  68.2179689  29.3123937
   4.3605506  13.5576308  57.0148277   4.0509132  12.9285467  56.3632059
   5.3109020  13.5717809  56.9014120  39.9256754  74.3878841  20.2612782
  39.7324324  75.0783920  20.8953810  39.1055632  74.2654848  19.7830880
  47.5962257  64.9362087   7.1553540  47.2288418  65.4246712   6.4186966
  48.0733681  64.2127657   6.7489111  75.0197029  18.2384479  57.2804642
  75.3549242  17.3447537  57.2085714  74.5487404  18.2512915  58.1136894
  55.4104805  78.3563805  48.6855316  55.0864172  79.2185545  48.4250212
  54.6692896  77.7681923  48.5409403  45.1421976  67.5220966  38.9867282
  44.5766640  67.7542305  38.2501674  44.9431896  66.6021490  39.1608596
  78.2541084  36.8128395  42.2792149  79.1574049  36.8546891  42.5931215
  77.7381468  36.6128802  43.0602551  54.4130993  78.4679079  27.6769352
  54.6767521  78.3855772  26.7604518  53.5490227  78.0578756  27.7153468
  66.3955641  12.9027224  35.2974176  66.6581535  13.8129890  35.1606965
  66.9652557  12.5922227  36.0011768  41.9311047  62.0047617  16.0276818
  41.9238949  62.5702667  16.7999399  41.2120056  62.3298979  15.4860079
  58.7207317  66.8910503  28.3984470  59.1088867  67.2017431  27.5804996
  57.7908897  67.1036291  28.3182216  59.2276955   3.7941736  17.6491451
  58.3036375   3.5797238  17.5212324  59.6629810   3.4538260  16.8675292
  34.6979022  53.9856148  39.0211749  35.5213451  54.4694185  39.0852761
  34.2580652  54.3614006  38.2585740  32.5731277  55.8079052   1.8534482
  32.2711468  55.6161356   2.7412909  33.2435989  56.4812613   1.9687134
  69.8464203   0.9340800  24.4339609  69.9719715   0.2359643  25.0766921
  70.7318115   1.2387684  24.2352557  52.0640659  71.3656759  26.8404555
  52.9015779  71.1534595  27.2524929  51.4106941  71.1732435  27.5129914
  49.6772003   1.4748222  44.0945292  49.1597700   0.6700454  44.0656710
  49.4853973   1.9127512  43.2652760  35.9595203  77.6673412  22.8053474
  35.4583645  76.9762659  23.2383466  35.8036518  77.5269604  21.8714166
  50.6739140  79.9167299  30.0870466  51.5420723  80.1705647  29.7738338
  50.5809784  79.0021801  29.8202324   9.8225147   0.9311476  57.4796486
  10.7656050   0.7969569  57.5734854   9.6238095   0.6244547  56.5949535
  67.6115131  15.6846774  12.7144563  67.3456526  14.7733736  12.5916815
  66.8167019  16.1282158  13.0107248  54.9216795  71.6202641  24.3220496
  53.9994431  71.5824127  24.0685177  55.4004812  71.4665270  23.5075903
  72.6589394   0.5883852   2.0993826  71.9191074   0.5412783   1.4938577
  73.2376766   1.2494162   1.7194696  14.5213795  60.8757114  30.6881118
  14.6989667  61.1032009  31.6007686  13.7931657  60.2561045  30.7330513
  75.0520086  11.3270605  37.4217606  74.3311644  10.7023180  37.3423219
  75.8109188  10.8633888  37.0677900  80.7135773  16.7968273  40.7991362
  81.1830044  16.3677120  41.5144873  80.1863575  16.1007357  40.4070616
  71.1468935   7.1874678  22.6903486  70.2059174   7.2594047  22.5302696
  71.5475512   7.7301818  22.0112562  43.8695288  70.3078222  42.2990370
  43.1952381  70.6709194  42.8732538  44.6959400  70.5534315  42.7149105
  75.9855080   9.0272951  44.2493200  75.5090332   9.8154479  44.5101213
  76.8750286   9.1666549  44.5742273  64.1920137  19.3251300  31.5045691
  64.2171383  20.2755022  31.3932443  63.6160421  19.0171587  30.8048248
  68.5051489   6.6998631  21.5223837  67.7325344   7.2190052  21.7455220
  68.1582689   5.9492433  21.0402274  32.3633218  56.4157724  16.9117188
  31.4097691  56.4280748  16.9942844  32.5917745  55.4862356  16.9118929
  32.6227236  72.5042772  35.4076290  33.3811593  71.9457006  35.5779171
  32.4632049  72.9515028  36.2387562  45.8547258   3.7790319  25.6765556
  45.3032064   3.5619685  26.4281845  45.4861927   3.2704261  24.9542427
  53.6137996  80.8825025  35.2547407  53.2624183  81.7162409  34.9422598
  54.0713535  80.5166436  34.4977546  39.3198633  70.6591415  48.9476299
  38.5949612  70.0459909  48.8260031  38.9286017  71.5223074  48.8131189
  51.8439102  71.7349434  31.5050626  51.7832470  72.0921087  32.3910570
  52.7804565  71.7423487  31.3074398  70.4391479   8.7261659  30.4915047
  71.1903811   8.5276949  29.9324942  69.7079229   8.2622516  30.0836706
  84.0647221   2.1647939  24.3615770  83.4934998   2.2919242  23.6041021
  84.6209812   2.9436475  24.3754745   1.0475209   8.0250043  16.9075966
   1.7859139   7.5402826  17.2764504   0.2778172   7.6533431  17.3384750
  74.6006727  66.7546988  41.6569042  74.5940590  67.0276213  42.5743484
  73.8835239  66.1243296  41.5893650  31.0026598  75.7943344  23.4133458
  31.9079161  75.9139442  23.7004638  30.4750109  76.0961533  24.1527534
  37.9385161  61.1900949  26.5881968  37.0929861  61.1647749  26.1402369
  37.9177070  60.4393959  27.1817017  52.9760027  71.0854626  35.7983255
  53.3208704  70.2518845  36.1183906  52.1170521  71.1644602  36.2132907
  20.3837967  76.6103363  50.1100063  19.9229717  76.2354136  50.8605480
  20.0928521  77.5217915  50.0812101  42.4482489  20.6526971   6.9265521
  42.5784349  21.0151124   7.8028727  42.2351742  21.4111733   6.3829106
  27.2385168  74.6607685  20.0451183  27.9326391  75.3173637  20.1026320
  26.5562963  75.0788355  19.5197356  50.7877970  51.4903784  16.1986136
  51.4351940  51.5307713  15.4947150  51.2687206  51.7574167  16.9819617
  38.3370447  73.1620693  24.9523950  37.8916788  73.5891390  25.6841683
  38.3025455  72.2288990  25.1627064  21.4771533  63.3246279  40.0364161
  22.1329165  62.7395630  39.6570730  20.6669235  63.1072378  39.5754385
  59.4142580  14.6068454  65.9401703  58.9816380  14.1159272  66.6387892
  59.4414663  15.5078995  66.2620258  37.0764017  78.0059862  17.5276899
  37.8069115  77.4126434  17.7024305  36.2951159  77.4672747  17.6526558
  37.9059815   0.4508394   4.8716441  38.4615517   1.1681616   5.1766413
  37.1090341   0.8805340   4.5610484  23.0098033  67.9163408  48.6365604
  22.3810911  68.6278486  48.7578535  22.9558229  67.4084187  49.4460869
  56.6473007  78.3061218  23.0843282  57.2052908  77.5303173  23.1391168
  57.0355082  78.8314342  22.3846340   7.8778923  19.8699152   7.3600888
   8.5759211  19.9321795   8.0120945   8.2351685  20.3026628   6.5846437
  65.9949160   4.3159270  33.6881900  66.2333727   4.9674839  33.0287623
  65.0790787   4.5055032  33.8919950  53.6264992   0.3097332  29.0582919
  52.9530382  -0.2560123  29.4359374  53.7908411   0.9692428  29.7322869
  21.1622930  65.9530830  45.3791475  20.3735375  66.4640379  45.5608702
  20.8366323  65.0812101  45.1555014  64.6586990   1.7205764  24.0062499
  63.7350607   1.4847766  23.9195299  65.1280165   0.8928709  23.9019489
  50.3702259  64.6629763  30.9605742  50.5404663  63.7241125  31.0366344
  50.5617046  64.8677397  30.0453496  50.4847813   0.9504301  21.9206905
  49.6836758   1.4742988  21.9261336  50.8991003   1.1550917  21.0824275
  63.9637661  76.9092131  21.4514685  64.4386768  77.6816082  21.1447215
  63.0772400  77.0211887  21.1082983  43.9694262  80.7025814  35.3407860
  43.6280155  81.5731430  35.1363277  43.2530642  80.1067924  35.1215005
  33.1519604  60.5518436  25.8069754  32.5805449  60.9066486  26.4880252
  32.9129314  59.6266127  25.7518101  85.7013416   5.3401744  35.4286695
  85.2797222   5.9948379  35.9853387  85.6912327   4.5386380  35.9518027
  68.3549070  24.1601443  11.4021182  68.3723640  23.5133696  12.1075344
  69.0419149  24.7852898  11.6332901   0.2155848  13.8677621  29.0728402
   0.7598870  14.1118562  28.3242512  -0.4687111  14.5365334  29.0996099
  38.7402487  69.3555737  27.7445507  39.4451547  68.9482832  28.2479930
  37.9542613  68.8717508  27.9982662  36.4875340  70.4321003  52.9808998
  36.8603468  71.0864973  53.5716677  37.0553327  69.6680117  53.0808926
  31.9180059  64.9765158  26.2170720  32.5540328  65.4137802  26.7832017
  31.4866948  64.3405819  26.7878532  44.2213869  71.3955975  15.7787144
  43.3850956  71.8029356  15.5530381  44.1111135  70.4748726  15.5413651
  42.8264141  64.4980288  36.2250614  43.2296324  64.3636465  37.0827246
  41.8865108  64.5261002  36.4040351  73.2691145  21.4887595  15.4202080
  73.4764147  21.8698859  14.5669782  73.0611181  22.2409964  15.9743845
  78.2966423   1.9624943  18.6149228  77.5344133   2.2655287  18.1215572
  78.7898159   1.4301693  17.9907107  62.0478487  16.5616441  33.2651901
  61.3740730  17.2082520  33.4753108  62.8022528  16.8213391  33.7940264
  66.9248152  71.9718313  38.3721209  66.1940193  71.9951630  37.7543616
  67.7046967  71.9268227  37.8189540  74.1836262   6.2369698  52.6970339
  75.0025892   6.4309537  53.1529951  74.2226267   5.2962774  52.5243855
  71.4037418  29.6185827   5.5687422  70.5132627  29.8042583   5.2707386
  71.8029976  29.1364336   4.8446172  60.4978180  16.4181650  30.6266570
  60.1141453  17.2331297  30.9504747  61.2025070  16.2231529  31.2444043
  83.1222534  24.6744776  53.5602951  83.0216122  24.2236233  54.3986464
  83.7836647  24.1649294  53.0921984  79.5628452  21.0104346  18.0848849
  79.1808796  21.6715670  18.6621487  78.8380861  20.7350993  17.5235069
  68.7381363   9.9361831  27.1419907  68.5807562  10.0826383  28.0747366
  68.7988424   8.9848047  27.0558238  77.8573513  23.0705571  29.4327831
  78.3568811  23.2651639  30.2257681  78.5108185  22.7515960  28.8103056
  72.5475121  16.3950837  13.4912241  71.6918373  16.6809654  13.8111031
  73.1361008  17.1202254  13.7009072  41.7505312  52.1933365  14.7132432
  41.9657278  52.7107143  15.4892874  41.2267303  51.4655781  15.0482547
   1.9967440  19.1170073  29.1777992   2.2422487  19.8090291  28.5637426
   1.1382476  19.3827164  29.5073652  82.9983521   2.9264563   2.6634705
  83.4208679   2.0953164   2.8800720  82.7046204   3.2725865   3.5061720
  68.8109064   4.3185845  46.8401957  68.3356524   3.5069364  47.0179367
  69.6831608   4.1702920  47.2054577  73.5803461  14.8511159  11.4850795
  73.1921434  15.4362798  12.1355534  74.5238686  14.9843979  11.5758169
  18.5662234  76.7906857  27.9251409  18.0619526  77.2928238  27.2849870
  18.4846127  77.2889090  28.7383699  51.2476301  12.0649695  25.1210284
  52.0992374  11.6282475  25.1376510  51.3698959  12.8057456  24.5272827
  78.6154652   9.1266936  44.4086027  78.8265324  10.0601339  44.4279146
  78.9496899   8.8229740  43.5646343   0.0015959  31.2173152  48.5247231
  -0.5421892  31.2360430  47.7372074   0.8747419  31.4627409  48.2187653
  26.8436956  74.4096613  48.2029295  27.1522045  74.8719597  47.4236155
  26.3993716  73.6338472  47.8609991  69.9456835   4.1561371  67.9181433
  69.1317081   3.6604473  67.8288555  70.5028963   3.8310200  67.2110033
  61.1848927  17.9110110  49.2081833  61.6339397  18.0489349  50.0421906
  61.8892288  17.8653586  48.5616112   4.1485345   6.1227524  13.9518869
   4.3108046   5.6151491  13.1567514   3.3939573   5.6965351  14.3583143
   3.0714804   8.0844223  35.2677870   3.9684424   8.4065217  35.1786637
   2.9212239   7.5713760  34.4737864  84.6535587  69.9103022   6.6035086
  84.7622013  69.5488214   5.7238710  84.7375584  69.1546583   7.1850389
  18.6183631  13.9275098  37.1934676  18.0162954  14.5317638  37.6277757
  18.3093107  13.0578208  37.4471617  70.4414606   5.1389062   5.9571767
  70.5318451   4.5168617   6.6790652  71.3014317   5.5537349   5.8893698
   2.4291509   6.1897540  44.1565323   2.0297125   6.9171679  44.6335506
   2.8072816   5.6348705  44.8387003  46.8803263  13.4408247  22.2964311
  47.2625780  13.8659191  23.0641627  46.7192173  14.1566229  21.6816902
  64.4717646  35.3913426  21.9340324  64.7595644  36.2304735  21.5744972
  63.9499187  34.9975443  21.2348676  34.9617553  34.6744156  69.5602322
  35.7629800  34.9797273  69.9857378  34.5911431  34.0404344  70.1741886
  10.7775557  33.5903382  67.3590660  10.0457942  32.9769564  67.2918415
  11.0535479  33.5345840  68.2739162  63.9361477  74.0211725  15.1050508
  62.9942989  74.1918993  15.1076818  64.2664289  74.4885683  15.8723104
  81.7538643  12.8935659  45.2389336  82.2511482  13.4330356  45.8536816
  82.3142624  12.1342111  45.0790453  71.8871498  24.4393039  31.7849755
  72.4567032  25.1920986  31.9435334  72.4535751  23.7959337  31.3589835
   5.5620998  32.4361324  39.7892308   5.1393068  33.1614971  40.2489281
   6.1844724  32.8581691  39.1969728  58.2202625  81.1032391  38.3991933
  57.7842903  80.2545929  38.4764290  57.6719570  81.5997791  37.7917075
  83.3248425  28.1172609  23.1590176  83.9664555  27.5226855  22.7703571
  83.7807274  28.5072303  23.9048910   2.1006332  14.7632587   6.4028627
   2.9155874  15.0532615   6.8127161   2.0553091  13.8268781   6.5961730
   6.6657370  24.1347623  21.1821270   7.1560800  24.5000029  20.4456520
   6.9195116  23.2120967  21.2048078  13.3621264  26.8794131  56.8246365
  13.8861346  27.6728964  56.7149591  13.9570594  26.2549853  57.2398233
  63.1865406  77.1472883  33.4041762  62.2527409  77.3369408  33.3131862
  63.2594872  76.2103653  33.2222772  68.1654501  13.6080754  28.0717015
  68.0997944  12.6755369  28.2773519  67.2696733  13.8701355  27.8592396
  34.2514038   9.7074765  11.0732138  34.8825097   9.0483379  10.7842958
  34.0673542   9.4796324  11.9845021  28.3750987  15.8558857  22.3540115
  28.0822062  16.1605453  21.4951587  27.8481507  15.0750029  22.5236535
  23.4809208   3.5494033  34.4396830  23.8886261   4.3360573  34.0774894
  22.5545645   3.7759545  34.5219541   3.3831605  35.2394581   4.7401538
   3.8499698  34.8665380   3.9923227   2.5163668  34.8346949   4.7074971
  13.3323157  27.1041512  41.6557074  12.9641902  27.6065159  40.9288359
  13.1418025  26.1919236  41.4371300  10.9949863  36.4334536  12.2219896
  11.5640473  35.8005333  11.7840242  11.2452745  37.2787547  11.8490887
   1.7303114  80.2185726  28.1818461   1.4899483  79.5650816  27.5250268
   1.0114227  80.8503628  28.1653810  11.9297445  39.3200254  18.0786443
  12.5883543  38.6306763  17.9934168  12.3923087  40.1238346  17.8416777
  63.5698414   6.5327400  42.5470781  64.2081118   7.1850872  42.2584820
  63.0192518   6.3802409  41.7790747  14.5517409  31.0537434  30.6149697
  15.2203858  30.4882336  30.2285194  14.8951900  31.9404078  30.5049682
  26.7499185  29.8838544  20.9409070  26.6119432  29.3215132  21.7031169
  27.2973657  29.3620062  20.3542137  21.4112496  21.7626524   7.3001629
  21.4684772  20.8225274   7.1295035  22.2707891  22.1037102   7.0529759
  71.8041420  30.0600743  12.4306452  71.0162401  30.6034565  12.4439204
  71.8367434  29.7071528  11.5414798   7.5413364  21.9024062  45.1456833
   7.6662838  21.1801481  44.5300817   8.4248674  22.1185875  45.4437923
  12.4226880   8.8409656  36.1597872  13.1287718   8.8818449  35.5148029
  11.6922593   9.2996597  35.7446909  42.3096371  23.4851909  14.4412792
  41.4735413  23.6470914  14.8782790  42.7878380  22.9146409  15.0429642
  84.5558739  34.3855166  37.7954102  85.2724552  34.9930739  37.6120663
  84.2456245  34.1134596  36.9317198  70.2623224  22.1172309  28.1140351
  69.7399330  21.3189983  28.0354977  69.8819542  22.5799036  28.8606858
   1.4379302  17.7838874  35.2966142   0.9730716  18.6040413  35.1308250
   2.3593940  18.0374300  35.3500223  84.2182446   7.1789187  31.2378097
  84.7001171   7.7030879  30.5980563  84.7985554   7.1356541  31.9978118
  15.0321960  17.8910398  16.5468204  14.4185627  17.2428453  16.2010896
  15.0190139  17.7521169  17.4937940  24.7426462  43.4539795  21.6435385
  25.1746702  43.9896536  22.3088503  25.1893568  42.6086569  21.6894794
  17.3730016  20.6811833  30.6290412  17.8394032  21.3012981  31.1895442
  17.9245222  19.8988473  30.6266284  12.0860374   4.7530875   7.4656641
  11.7925096   5.1597393   8.2809603  11.8277931   5.3720897   6.7827451
  83.6269951  20.2283049  26.3506532  83.5433960  20.7863474  25.5774570
  84.5592403  20.0152564  26.3926101  37.7162027  76.4188671  20.1334405
  36.8546963  76.0059977  20.1932549  37.6430154  77.2052193  20.6742930
  18.5476804  19.8591602  41.9075775  18.7565970  20.7913041  41.9683456
  19.3921459  19.4336224  41.7591572  85.2074909   2.7598092  28.4569573
  84.5913124   2.7366787  29.1890955  85.3787899   1.8391243  28.2589030
  17.0507407  21.4101005  22.1314240  16.8617427  22.3473740  22.1764684
  17.1249437  21.1365199  23.0456877  11.1725509  10.6950796  41.4729977
  11.0904014  11.6460371  41.5448427  10.8366251  10.4909122  40.6002426
   1.0271701  30.3349304  25.8271933   0.0703670  30.3104305  25.8398128
   1.2412106  30.9927630  25.1656222  17.6814008  16.2359154  24.5604324
  17.3867941  15.8718157  25.3952193  18.2846594  15.5793166  24.2123127
  12.4305773  28.5624290  16.1588967  12.0450783  29.4183731  16.3459337
  12.4564767  28.5150766  15.2032185   7.4424803  19.6915710  23.8510728
   7.2274834  18.8028371  23.5679483   6.7247951  19.9371648  24.4348907
  18.5226607  12.5326288  46.8033695  17.9453504  11.7878461  46.9714308
  18.1767595  13.2333195  47.3561954   7.8740519  19.9110055  37.4152112
   7.8157848  19.0790868  37.8850484   7.7887028  20.5775452  38.0968785
  85.9318733  43.4602261  29.0670657  85.2202702  43.3666658  29.7003961
  86.6120911  43.9395142  29.5401597  79.3189621  23.8174629  43.3976555
  78.5753918  23.8114476  44.0004015  79.9435806  23.2021666  43.7817097
  14.5746219  18.6979425  33.9049697  14.1115868  19.2495370  33.2744336
  14.7710574  17.8951752  33.4220505   3.8133332  11.1330080  61.8358755
   4.6650672  11.2976515  61.4313126   4.0068284  10.5570948  62.5755501
  73.1319046  38.0043745   7.6663285  72.8944731  37.0772314   7.6500630
  72.3741627  38.4522986   7.2902679  23.5811615  17.5895286  39.9699259
  23.5570931  17.7400839  39.0249467  24.2732835  16.9395626  40.0913525
  23.7938166  41.2955904  27.4648619  22.8596854  41.4161110  27.2942543
  23.9235878  40.3479195  27.4286604   4.3671897  33.1493282   7.4349654
   4.3431216  34.0996790   7.3232329   5.2232373  32.8897238   7.0943487
  31.8015838  51.9382143  21.8738365  32.2706199  51.4580488  21.1914277
  31.1773705  51.3042068  22.2268605  15.9154320  54.4100094  41.6305351
  15.0092256  54.1130972  41.7133808  15.8986330  55.0300121  40.9014606
  16.5491474  19.6087348  19.9493051  16.6231477  19.9934232  20.8226728
  16.3410044  20.3484750  19.3786097   8.9467186  39.4818115  18.2789755
   9.7435194  39.9377108  18.0078769   8.8302398  39.7281551  19.1965699
  22.4375153  29.8802233   6.5005332  22.9901123  30.6581664   6.4251983
  23.0014110  29.1581273   6.2233514  58.8214302  49.0100765   3.7117738
  59.6637487  49.3537331   3.4140697  58.2416677  49.7716713   3.7206480
  31.5583849  29.7770047  12.5843441  30.8277106  29.5939183  13.1749594
  31.2011600  30.3937721  11.9454253  17.8522813  18.2940412  26.3058209
  18.0110741  17.7554476  27.0810199  17.9866731  17.6983786  25.5686927
   5.6163847  39.4395995  36.6669035   6.0603017  39.7938657  37.4373984
   4.7044247  39.3405604  36.9403100  75.6631374  24.6024799  29.4294667
  76.0114861  25.3950763  29.8377252  76.4291477  24.0433216  29.2998600
  19.8573959  22.6766372  45.2952290  19.9915087  23.5140657  44.8514318
  19.0855300  22.8171039  45.8436155  16.3881755  24.1577315   9.1762954
  17.3211980  23.9499903   9.2267263  16.2401187  24.7710919   9.8960876
  18.0574846  19.0417373  12.7354300  18.0953336  19.6728754  13.4540844
  18.8669968  19.1874218  12.2458398  42.4973536   1.6867919  20.8804417
  42.2569656   1.8385223  21.7944551  42.6036882   0.7377616  20.8151221
  42.9644346  44.9533510  61.2464952  43.4930038  45.3785324  61.9218206
  42.1674013  45.4812384  61.1984825   9.6725458  34.5836425  22.9159284
   9.0402502  35.2438354  22.6320624   9.8067129  34.0331554  22.1444368
  25.0010777  41.1089706  18.6614907  24.5593786  40.2689219  18.5372078
  25.3200388  41.0807180  19.5635426  13.9420044  35.8292174  25.6055450
  14.1611493  35.1337433  24.9854445  14.5832872  35.7331395  26.3096452
  46.0016918  11.9847059  37.5248957  46.5608644  11.3879490  37.0274615
  45.8024979  12.6927960  36.9123912  31.4260602  27.0629311   8.2644337
  32.0653391  26.9985938   7.5549150  30.6843376  27.5277519   7.8771114
  41.3020754  21.0708857  27.1491551  41.4236069  21.1401248  26.2022281
  40.6551981  21.7449498  27.3575306  22.7240300  40.0096560  23.2569337
  22.5223660  40.9390736  23.1485534  21.9048309  39.6210051  23.5636783
  22.7616787  24.5892096  27.5473881  22.5723433  25.2117324  28.2494211
  21.9768643  24.6001053  26.9994998  21.4214373   1.0354354  19.5193005
  20.7408166   1.7082474  19.5369840  21.4857340   0.7839454  18.5979700
  18.9029813  26.0369873  24.2851615  19.4748545  25.9009337  25.0405979
  19.3386769  26.7195702  23.7747884  15.1636779  11.4498246   8.5315967
  15.4152060  11.2629795   9.4360602  14.2656434  11.1261261   8.4609896
   3.8806778  54.8479462  22.2529483   3.9132425  55.7981348  22.3639369
   4.3528962  54.5020199  23.0102968  21.7200112  17.5324929  31.5580988
  22.5774217  17.9364693  31.6918349  21.3926935  17.3669958  32.4422383
  61.4661789  77.9326105  47.9741144  61.9068813  77.7832222  48.8105917
  62.1332407  78.3395910  47.4212742  17.9158771  56.6171122  34.2218971
  18.7399602  56.3990688  34.6572995  17.4500239  57.1665668  34.8522258
  20.9869504  42.9796076  24.9096107  21.5291429  43.2302713  24.1616631
  20.0928235  42.9793787  24.5678949   6.1045110  36.3361764  30.9847975
   6.6973436  35.6170392  31.2030315   6.5280664  36.7814326  30.2509189
  47.1167946  76.1436129  68.1640387  47.8872061  76.6720343  68.3725405
  47.0513868  75.5198145  68.8871098  15.7226110  39.7749853   6.3715893
  16.4940417  40.1658487   5.9612793  15.6174862  38.9322948   5.9299433
  15.9423459  44.7520781  38.5665727  16.4564037  45.1215982  37.8486371
  15.0328577  44.8475075  38.2838058  10.4788673  18.9287519  32.1390247
  10.6007111  19.6143150  32.7958274  10.1510322  19.3914187  31.3678598
  19.6655953  33.9401913  32.6367211  20.2302122  33.9644575  31.8641591
  18.9025795  33.4328365  32.3598981   2.7827933   6.8503326  25.3293324
   2.8886616   7.1717662  26.2247109   2.2503896   7.5178152  24.8966146
   9.2918205  33.6687016  19.1992259   9.7468859  33.4827590  18.3779025
   9.4576937  34.5976162  19.3599665  28.2507539  59.6412039  22.9989386
  27.2943473  59.6058416  23.0152369  28.4547257  60.3035259  22.3386693
  20.3796124  26.2033939  36.5386367  21.3178778  26.2358379  36.7252874
  19.9701548  26.6218996  37.2958875   5.1708508  10.9941351  28.3675981
   5.4466200  10.6383538  29.2123461   5.5189621  10.3779972  27.7230620
  14.8124099  26.5168118  19.0486455  15.6706083  26.8836188  18.8360918
  14.2021656  27.2420263  18.9148593  80.2062225  30.8468747  23.6388707
  80.6297588  30.3157616  24.3132377  80.3232670  31.7492127  23.9360571
  69.5740843  25.6884599  37.6999331  69.9785757  24.9175739  38.0978703
  68.8900757  25.3337741  37.1319890  36.0231853  70.1234961  67.3855066
  36.1837101  70.6054688  68.1967831  36.0565162  70.7906866  66.6999531
  40.9689569  59.0102243  66.7374659  40.9837866  59.4619322  65.8936834
  41.8636084  58.6903381  66.8536520   8.4281284   9.7007209  24.0418148
   8.0977023   8.9384681  23.5663986   8.1079549   9.5825124  24.9361014
  26.6688251   9.1626912  20.2343941  27.5420046   9.3352360  19.8822331
  26.2610888  10.0263965  20.2976036  21.8199158  48.6953783  27.3841071
  21.3688707  48.5485983  26.5526962  21.9717050  47.8168869  27.7326012
  19.5241904   8.3893645  10.4183984  18.7439704   7.8388631  10.4850030
  20.2290726   7.7802092  10.1986241  14.6884310  17.7299607  24.4926858
  15.6324029  17.8831005  24.4515157  14.3420219  18.1576610  23.7095475
  80.7994938  42.2389698   8.1912446  81.7439175  42.0866871   8.2244778
  80.7140636  43.1732893   8.0015403  19.0057218  25.9141564  28.6913991
  18.2520163  26.1547542  29.2301679  18.9016056  24.9748063  28.5397053
  17.2293019  72.4317074  13.6074424  16.8225431  72.2947693  12.7518570
  17.3832750  71.5487671  13.9435124  18.5208356  26.4282560  13.6353886
  19.0352094  27.2033381  13.8609958  18.8830400  26.1355114  12.7991223
   9.6529853  17.5000942  49.6991396   9.5840418  18.1598473  49.0090656
   8.7465531  17.3142195  49.9442196  27.4395490  39.0362763   7.0451379
  26.4869881  39.1091180   6.9855493  27.6460719  38.2188582   6.5919173
  17.9763687  16.0857058  33.8395166  17.0974886  15.8254993  33.5636663
  17.8976858  16.2334299  34.7819710   9.0770346  21.1340857   5.5523384
   9.7487235  21.7616105   5.2853602   8.5915732  20.9465814   4.7489700
   5.9938097  22.1485782   8.3984303   5.9236586  21.4437819   7.7545577
   6.8227249  21.9815469   8.8470191  82.4258614  31.8848038  11.7650390
  83.1626606  31.3168001  11.9902647  82.1508217  31.5877175  10.8976734
  72.0310688  10.3789020   7.7724916  72.8114033  10.6228375   8.2702911
  71.3101673  10.4752815   8.3947802  25.6428552  61.1385679   8.3556390
  24.8123837  60.7723522   8.0516022  25.8564901  61.8143034   7.7122307
  24.0243459  18.4430254  31.9525862  24.8737717  18.5573435  32.3787785
  23.7464023  19.3315971  31.7302799  15.7802033  23.5573292  36.8876672
  15.4400027  22.7443027  36.5141964  16.4643931  23.8332009  36.2777400
  12.8313553  15.8070505  21.3365626  11.9765735  15.6860185  20.9231257
  12.7909517  16.6840947  21.7178679   9.8120832  27.3229718   7.0577759
   9.4669122  26.9348264   6.2537670   9.4437236  28.2062960   7.0746273
  32.1040535  21.1256409  14.3963957  31.8552113  20.9981799  15.3118539
  32.6480055  20.3660703  14.1880667  53.0927563  76.5572071  69.6324253
  52.3598528  76.8739748  69.1044617  53.2166529  77.2322369  70.2996731
  26.4710450  39.6612763  27.0759416  26.8750167  39.9057174  27.9085803
  26.2256527  38.7430286  27.1892309  28.4740329  13.5266078  31.1830568
  27.5892162  13.5942125  30.8242226  28.3504772  13.1555772  32.0567274
  72.7964449  47.8128862  68.7440872  73.3875608  47.3361731  68.1613731
  72.4736834  48.5415983  68.2139587  22.0912933  31.5604854  19.1390693
  21.6263580  32.0003939  18.4273505  22.5862789  30.8641315  18.7074256
   5.7536489  36.1400819  25.4083967   6.1632347  36.3975835  26.2343287
   5.9895247  35.2186227  25.3011298  29.2741299  12.4411571  36.5640974
  28.7676120  13.1046653  36.0956645  28.6393785  12.0205498  37.1441102
  81.7665195  58.4239912  57.9826880  82.6047993  58.8670588  57.8514957
  81.9783497  57.6678419  58.5300493  30.0947380  36.7527151   5.0575113
  30.0691366  36.2079144   4.2708939  29.1866493  36.7811155   5.3588468
  16.4696693  37.6056623  33.4430552  15.9052932  38.3073044  33.1183839
  16.4854181  36.9632888  32.7335906  71.2545776  40.0843096  19.7817492
  70.5836248  39.8252010  20.4133487  71.9539261  39.4411421  19.8978317
  80.7381058  18.3750784  28.8353062  79.8656321  18.4203506  29.2264271
  80.5802441  18.1188190  27.9266596  31.4836597  38.6925817  19.3038809
  31.1863041  39.5850658  19.4807446  30.7578993  38.1374002  19.5889699
  79.4905758  37.0759201  54.6142912  80.3774452  36.9833469  54.9623156
  79.5859480  37.6712966  53.8708782   4.0592742  44.5277929  17.4791443
   3.8268492  43.7666321  16.9473124   3.3901051  45.1794767  17.2699738
  17.9105663  66.6136646  20.4663610  18.4999859  65.9493971  20.1092005
  17.9641283  67.3401785  19.8454416  14.8291922  11.6684473  19.4852817
  14.5840371  11.8050897  18.5701537  13.9951754  11.5692532  19.9444199
  84.8335934  19.1233909  43.0342674  83.9986897  19.0807080  42.5680685
  84.7547340  18.4678435  43.7272835  73.2462072  26.5072155  13.3342564
  72.7116585  25.8926749  13.8370764  73.3285999  27.2732997  13.9021993
  68.2702637   9.0108359  56.3240480  67.9836082   9.9017972  56.5246677
  67.8337002   8.7988371  55.4990005  85.6210327  21.3372612  44.6353340
  85.0537205  22.0653915  44.3819189  85.3694248  20.6227207  44.0502262
   4.7749701  16.2253141  24.0633631   4.3602079  17.0755088  23.9171696
   5.6211758  16.2924123  23.6210203  19.7228348  36.5967011  33.8335085
  18.8645935  36.3157892  34.1509104  20.1494670  35.7883215  33.5493565
  13.2519078  46.9086170  21.1905217  12.6498032  46.2837982  20.7864141
  13.8922536  46.3630867  21.6472363  12.5597966  26.1568928  31.7290306
  13.3404863  25.9830856  32.2549081  12.2212362  26.9850063  32.0693779
  28.0949593  10.1816535  35.0905371  28.7412834  10.6039512  35.6563663
  27.4256420   9.8564529  35.6926084   7.1257311  33.3792806  37.8025913
   6.6425425  33.8432026  37.1188235   8.0138463  33.7324166  37.7498865
  18.2601655  49.4902754  19.7065639  17.6762795  49.2082214  19.0024662
  17.9488885  50.3648424  19.9399602   5.5873328  11.5462816  34.7121072
   4.7596288  11.6349328  34.2395830   5.6888133  10.6034708  34.8426461
  26.9555020  24.1973877  33.7695193  26.1476612  24.5801687  33.4273148
  26.6908193  23.7663388  34.5821524  57.1521890  66.7666953  70.4905012
  57.6004350  67.5902527  70.2979956  56.5546477  66.6412323  69.7533214
  39.3271661  35.0755930   6.7023748  38.7465644  34.6163535   7.3091960
  38.7902737  35.7838178   6.3468540  12.8338933  39.3303895  25.1222181
  13.5046411  39.5727158  25.7606578  12.3159027  38.6568546  25.5629778
  85.6096363  29.0079451  31.9939137  86.2077904  29.6176004  31.5617561
  86.0498142  28.7805724  32.8129220   7.5949615  42.4026155  12.6056051
   8.3374614  42.3594475  13.2081521   7.8071296  43.1257868  12.0154846
   4.4121626  30.3346324  35.9209442   5.0981927  29.6689415  35.8714199
   4.3944344  30.7257390  35.0474739  23.6770701  19.4579339   9.5028096
  23.5425019  18.6787128  10.0421941  24.6145630  19.4564974   9.3095851
   9.7466040  10.7612026  11.2366450   9.5046836   9.9670506  10.7601702
   9.3592840  11.4732981  10.7275927  81.6451359  21.7163062  30.9010720
  81.3548756  22.6099467  30.7183456  81.9663811  21.3920617  30.0597072
  14.7288513  41.6967726  28.8105822  14.5238018  41.3664436  29.6852636
  15.0811517  42.5737619  28.9622617  12.2442472  33.2007074  31.5730143
  11.6185915  33.9232111  31.5203261  11.7289066  32.4218321  31.3632274
  12.4792397  43.6296940  41.0123730  11.8216050  44.2393255  40.6775570
  12.4822545  42.9101753  40.3810930  30.8753610  36.2018251   8.7215734
  30.2374506  36.5707135   9.3324959  30.7965636  36.7439842   7.9366612
  19.1680849  38.5629582  31.5726876  19.0531611  38.2118177  32.4557066
  18.9116096  39.4822979  31.6452575  18.2644212  45.4786253  17.7481914
  17.9296565  45.4680443  18.6448812  17.7968299  44.7678518  17.3095608
  21.6999364  14.9648654  38.2768559  21.9903827  14.0599668  38.3910036
  20.8726263  14.8926330  37.8008604  80.9952736  66.3089466  27.2714806
  80.1233768  66.5261459  27.6014090  80.8734703  65.4874325  26.7955446
  14.9599600  14.9634480  12.7554512  14.2589045  14.5521724  13.2610261
  15.2545500  15.6914449  13.3026898   1.3735193   9.8315632   1.9452761
   1.9185512   9.0492135   2.0295441   0.6687856   9.5698243   1.3527603
   2.9948083  66.3874578  18.4551406   2.3154199  65.7155704  18.5119689
   3.7719887  65.9746695  18.8317454   8.2061827  18.2491612  26.6869235
   7.9125673  17.3382759  26.7044973   9.0351003  18.2244360  26.2088895
  29.2561388  13.1567705  21.0299945  28.7695098  13.8820612  20.6383610
  28.7824392  12.9591107  21.8379378  79.7282076  43.4598017  22.3538733
  79.7511530  42.7558947  23.0021167  79.7490597  44.2639494  22.8726697
  76.1165285   9.2050022  12.7900243  76.2797117   9.7906637  12.0506978
  75.1686764   9.2401576  12.9187608  67.6691437  36.9062972  20.8501220
  66.8218374  37.3455596  20.9232640  68.0547190  37.2614765  20.0492406
  13.4131002  25.7769251   5.1282799  13.3790374  25.8343196   4.1734093
  13.6557305  26.6581035   5.4126853  69.9288940  19.5171082  40.3129578
  70.7666922  19.0639317  40.2182865  70.0739002  20.1428199  41.0226679
  21.0161948  22.7121091  30.3650641  21.8184876  22.3875904  29.9561024
  21.0103011  22.3095918  31.2334967  82.6083183  38.1513381  32.9531384
  82.5235367  37.1979356  32.9615116  82.9965210  38.3498001  32.1009994
  30.7847285  36.1751199  13.8297093  31.1515427  35.3209567  13.6014926
  30.8187795  36.2026691  14.7859073  18.9891911  48.3132935  22.1269512
  19.7886240  47.8847456  21.8212032  18.6652124  48.7893963  21.3623619
   5.1801026  22.1800637  46.3706303   4.7334716  22.2648430  45.5282736
   6.1083466  22.1206713  46.1446476   5.8022529  36.8085003  49.5357084
   5.9124905  35.8703661  49.3808460   6.2342674  36.9650316  50.3754044
  15.2096796  12.1940339  35.9086609  15.6810820  11.5110290  35.4316735
  14.2865562  12.0226979  35.7223272  24.5238924  31.7423654   6.9106412
  25.1429057  32.1627522   6.3137078  24.9700427  31.7425752   7.7575070
  26.4128375  25.6670117  29.3871188  26.2890983  25.3208756  28.5033154
  25.6366301  26.2045145  29.5446849  50.2515268  42.5685787   9.9249685
  49.5653486  42.1613455   9.3962413  50.2694035  43.4800911   9.6333206
   1.4006308  26.3710403  37.7771187   1.9115493  27.1419525  37.5303674
   0.8270612  26.6784620  38.4790754  10.3743327  23.7632036  13.4878993
   9.9596179  23.0026364  13.0807400  11.0409915  24.0381026  12.8584337
  20.5368924  59.6766090   5.9286582  19.8142779  60.2201271   5.6145734
  20.4298806  58.8453388   5.4663032  29.0367079  30.0081444  14.0671968
  28.0971122  30.1792693  14.1313219  29.4474769  30.8499384  14.2643845
  13.6744022  38.8154173  21.1381674  14.4175982  38.3555984  21.5286255
  14.0332019  39.6583462  20.8607364  24.9389815  18.2519543  62.9787922
  25.1444483  18.0224764  62.0725060  24.1870213  18.8404799  62.9122639
  27.7034760   1.8983056  39.5274591  28.5040808   1.3996124  39.3644667
  26.9956088   1.2751432  39.3636799  70.3203106  28.7856102  63.9670467
  69.9942827  29.5731139  64.4026804  69.9591732  28.8345981  63.0819416
  23.1782126  19.2456114  15.4002464  23.2547069  18.2922435  15.4385912
  22.2720432  19.4235075  15.6521273  20.9308887  36.2204933  22.1675587
  20.4759264  35.6332207  21.5639424  21.3257074  35.6380367  22.8164744
  21.5892386  32.9848814  16.6729248  21.1150908  32.2104049  16.3702679
  20.9070969  33.5692525  17.0037138  47.6957989  73.3208275  68.2035637
  47.2178030  73.8554764  68.8375187  47.9042673  72.5159693  68.6778831
   2.5558636  55.0341845  37.3525977   3.1284535  54.6537638  36.6865253
   2.8559682  55.9391069  37.4379444  53.7462234  37.3839760   2.6626310
  54.5200109  37.9257917   2.8172910  53.0832672  37.7385139   3.2551044
  81.2972164  28.8268685  28.4121394  81.5325165  27.9733753  28.7760258
  80.3404427  28.8198805  28.3844018  24.4087625  36.4867783  24.9817801
  24.5464420  36.8769884  25.8449197  24.3443871  37.2349477  24.3882036
  25.0058198  12.4282551  24.3889380  25.0082350  11.5239286  24.0752196
  24.4451046  12.4112141  25.1645279  74.0160465  46.4460421  21.6134071
  73.1411219  46.7163181  21.8921304  74.5865870  47.1652603  21.8844008
  71.3660336  20.5045223  11.2965226  70.7610750  20.3683424  12.0257080
  72.1928215  20.7471919  11.7133701  66.2710428   2.6155689  30.8479905
  65.9176207   1.9177711  30.2962613  65.7843733   3.3972740  30.5866051
  75.5608845  33.1771469  32.3786426  74.8264837  32.6742148  32.0265841
  76.0809231  32.5352073  32.8620744  48.4168386  47.2944117  63.6601782
  47.8175735  47.1952391  62.9203939  48.0278492  46.7647982  64.3561840
   2.5491056  23.8222694  37.8543735   2.4595100  24.7699046  37.7534103
   3.4689116  23.6918759  38.0849934  24.8319602   7.9428345  47.8087044
  24.6604156   8.7500000  48.2937717  25.7816362   7.9323369  47.6893902
  26.1882138  27.2847462  25.4770827  26.3140345  27.4751639  24.5474911
  26.1931252  26.3289452  25.5285859  25.8492231  57.6416588  16.5539765
  26.1679769  58.1064272  15.7802749  24.9214005  57.8711843  16.6059220
  70.4560089  53.5330153  29.9421215  70.5697870  52.9709148  29.1757464
  69.9561357  52.9985046  30.5590963  17.1832097  14.6626866  26.6334701
  17.4990535  13.8628101  27.0537925  16.2293363  14.5911241  26.6686153
  62.1659088  78.7367678  14.1878569  62.8925037  79.1920614  13.7624192
  61.3815308  79.1675234  13.8481045   9.2183840  39.3025017  10.6109476
   8.3675086  39.7380900  10.6610096   9.4485992  39.1211486  11.5221786
  36.2187743  72.1369553  65.5140781  35.5940342  72.7765989  65.1723385
  36.9565010  72.6635122  65.8218622  54.6758461   7.4804372  67.2770023
  55.4886293   7.0012814  67.4383307  54.6527290   8.1499058  67.9607487
  37.9506874  24.9619389  29.5077848  37.1964502  24.5033240  29.8779583
  38.1157613  25.6818247  30.1166773  39.8411560  19.0059018   7.1609956
  40.5912876  19.0484416   6.5679294  39.9234009  18.1544447   7.5905156
   1.7664802  22.7153158  29.5868635   0.9631064  22.4832368  30.0526547
   1.7826355  23.6722994  29.5993447  17.2284973  23.7425661  17.3234224
  17.1303236  23.9510608  16.3943779  18.0885935  24.0913320  17.5575757
   9.6217012  59.9902391  13.7769306   9.9780470  60.8084249  14.1230822
   9.1161734  60.2552891  13.0085409  85.4159260  32.5459313   5.2784997
  84.7734261  32.7959681   4.6144834  85.2315235  33.1231046   6.0195142
   7.8942406  47.4240351  25.9242082   8.5097075  46.7314577  26.1645603
   7.0317990  47.0167923  26.0053325   9.7072977  37.0669556  16.4953542
   9.6204084  37.9439974  16.8688238   8.8694870  36.9076395  16.0607004
  38.0650401  72.8565788  62.3927450  37.3269010  72.2799444  62.1955776
  37.6608968  73.6947107  62.6173162  10.5595589  18.1843638  21.6589022
  11.3856781  18.4527433  22.0610595  10.2087808  18.9872968  21.2735653
  11.1211097  27.8656816  44.7884035  10.5343366  27.4819279  45.4400682
  10.5596519  28.0381155  44.0325880  35.0084758  38.2045984  19.8296523
  35.6692362  37.5922322  19.5061839  34.1826105  37.7261329  19.7571886
  18.6296165  45.3826475  31.0808110  18.2119751  46.1772060  31.4132118
  18.3791459  45.3486824  30.1575875  36.2039399  77.7351141  67.9712343
  35.7940269  78.5481310  68.2665443  35.6252837  77.0442104  68.2937956
  35.2710462  51.4890337  20.4593420  34.8812628  52.2947598  20.1200652
  34.6188736  50.8124065  20.2774668  82.8924370  46.9893742  29.0351892
  82.3277760  46.3397789  29.4540238  83.2737446  46.5288782  28.2876706
  11.0611260  61.8866968  14.9216366  10.4968488  62.6536465  15.0196517
  10.8957803  61.3656998  15.7074201   9.8340386  55.4770231  11.0974419
  10.1758599  54.6430779  10.7750618   9.7165006  55.3403473  12.0375156
  14.1482592  64.4219971  30.1978803  13.5303307  64.0306711  29.5804167
  14.9906349  64.0238857  29.9784732  29.6955132  47.8261042  16.9258976
  29.2807555  47.7240801  17.7825177  29.5814371  46.9756269  16.5017366
  12.5777566  57.7389002   2.3077334  12.8241658  56.8439674   2.0740438
  12.9026759  58.2736826   1.5833947  36.4107299  30.2058864   7.9749489
  35.5774522  30.3313875   7.5209326  36.4398313  30.9111619   8.6214548
  17.4006379  35.8065939  16.9665265  17.2976375  35.6940126  16.0215664
  17.9069161  35.0434232  17.2448814  20.2982783  46.0415602   2.1776967
  20.9196877  45.6344748   1.5740722  20.0931573  46.8861771   1.7767248
  21.9828606  51.2794590  28.2749844  21.7850399  50.5071402  27.7452493
  22.3277664  51.9168568  27.6496863  68.9135361  13.4861743  57.4105263
  68.9484453  12.6095700  57.7933788  68.3808041  13.9938378  58.0226564
  31.0264206  36.5076208  16.8243873  31.2154317  35.7749724  17.4106765
  30.2759123  36.9469619  17.2243190  11.7010856  50.5711555   7.9643273
  11.2935460  51.4302158   8.0746001  11.0066676  50.0214577   7.6012188
  16.7845380  32.1740627   2.1370916  15.8630502  32.1488571   2.3948817
  17.0499074  33.0817556   2.2850950  29.1623640  59.0204477   1.1944731
  28.2078695  59.0380716   1.1247567  29.4527864  59.7872257   0.7005714
  20.0047016  54.9693203   6.2971103  19.8881447  55.7109547   5.7032877
  19.3635392  54.3228912   6.0016960  12.9226768  45.7872438  28.0486679
  11.9694877  45.8684731  28.0160546  13.2381332  46.6892099  28.1050253
  33.8844442  26.2286234   6.9945878  34.3888140  26.7875099   7.5857633
  33.9620733  25.3514600   7.3698062   6.2220877  48.0241489  20.0278163
   6.9214761  47.3845673  20.1620698   6.0001242  48.3248568  20.9090304
  24.6471286  45.0607967  19.3679583  24.7799945  44.3979454  20.0456095
  25.4394031  45.0180674  18.8325083  81.2606716  43.2152510  34.5497251
  80.3924179  42.8140545  34.5872426  81.8192959  42.5415039  34.1621161
  85.6410408  21.2588453  40.0589943  84.7150135  21.4040041  40.2530003
  86.0869026  22.0157599  40.4391479  22.2524714  61.3732433  20.0783944
  22.9761815  61.4919662  19.4632661  22.5653505  61.7634678  20.8945203
  28.3420539  56.6008997  46.8740177  29.1607285  56.1578846  46.6509819
  27.9626250  56.8425894  46.0291195   2.6971444  41.0134172  22.2321081
   2.7108839  40.2186680  21.6987991   2.4988991  41.7148161  21.6116452
  32.8450823  43.9109945   8.2894683  32.3017621  43.8699484   9.0764564
  32.3135352  43.4969234   7.6095891  27.0096707  12.8890407   3.2245103
  27.6495290  13.5691190   3.4349972  26.1650157  13.3386219   3.2503957
  35.3380561  50.7608891  14.7328115  35.1184011  51.6799641  14.5801961
  35.1459503  50.3274488  13.9012742  32.6944757  54.2063189  10.8029258
  31.7702556  54.3339109  11.0168564  32.9735756  55.0454378  10.4365683
  35.6607938  21.0838675  15.4227769  35.0390315  20.4788041  15.8271790
  36.1569405  20.5425406  14.8087466  15.5974102  21.5886331  18.1220877
  14.7958517  22.0200729  18.4180510  16.1512434  22.3026991  17.8064811
  26.9908595  50.1760960  13.1580305  27.2589183  49.3601942  13.5807335
  27.7214670  50.3980827  12.5808251  30.3403521  56.5742922  -0.1150367
  29.9590135  57.2782993   0.4095496  31.2857842  56.6906023  -0.0208970
  37.5777125  49.0657425  14.4664395  37.8405023  48.9976978  15.3843415
  36.7139554  49.4772911  14.4944727  16.7874360  72.8135061   7.4698877
  16.2221146  72.6050234   6.7261267  16.5459371  73.7077999   7.7110153
  21.0319638  31.2836742  11.8830347  21.7374396  30.8944988  11.3662398
  20.2749991  30.7220459  11.7162621  20.7882452  28.4601426  31.0068226
  19.9873543  28.9419961  30.8003640  21.4950633  29.0264440  30.6970739
  12.7009392  43.2620668  26.5172935  13.4826326  43.2564020  25.9648824
  12.8209078  44.0162849  27.0943451   7.2628993  50.9959412  19.5217371
   6.9592565  50.1469469  19.8430467   7.5843686  50.8166027  18.6381495
  12.1190155  43.0704975  21.9205260  12.9858613  42.6654673  21.8929768
  11.5856373  42.4603558  22.4299002  29.7827411  43.3435011  28.0327797
  29.8475933  43.0137444  28.9290428  28.9957571  42.9275036  27.6808763
   2.4178164  23.9281297  24.3847156   1.6415450  24.4869256  24.3475509
   2.8859866  24.1140962  23.5707974  25.6443262  59.4565105  22.6087952
  24.7963238  59.8752737  22.7563071  25.4666853  58.7792063  21.9561601
  17.6457179  46.5345526  23.6114311  16.8524170  47.0359039  23.7999773
  18.2080173  47.1459055  23.1357265   6.5844935  70.3569460  68.7534714
   7.1157002  70.7231665  69.4605350   6.6264635  71.0131168  68.0578375
  17.0074034  34.1869760  24.1246271  17.9132128  33.8901758  24.2120934
  16.4815331  33.4338784  24.3939495  30.6728148  45.5618286  32.0036697
  30.1581359  46.2525702  32.4210548  30.4579544  44.7709751  32.4982548
  62.3820019   1.2366817  64.3795204  62.9426479   1.8964946  63.9714146
  62.6848984   0.4056032  64.0137434  26.5174985  53.9485836   4.7326344
  26.3522387  53.3227491   5.4377955  26.3558364  54.8045778   5.1293308
  72.3972750  80.8700371  26.1123586  71.7211723  80.3234768  26.5128374
  73.2129908  80.3936100  26.2668014  32.9031849  59.7991419   2.4825345
  33.4664798  60.0485754   3.2151425  33.4699988  59.8586893   1.7135046
  21.0126400  50.7723331  19.6926844  21.4262843  50.3641033  18.9321065
  20.2489543  50.2241564  19.8730063  28.1994724  31.0221457  23.8932347
  28.5111117  30.1329231  24.0617490  28.2723832  31.4656734  24.7383380
  29.7915101  39.1744423  25.0006866  29.9618530  39.7024655  24.2206812
  30.0876641  38.2954526  24.7642517  12.5764573  63.2922268   4.7240084
  13.3366215  62.7130032   4.6703181  12.7684665  63.8716793   5.4612976
  17.9721987  48.5835028  12.6958978  18.5959411  47.9909468  12.2763050
  17.5629449  49.0538931  11.9696224  20.0167680  24.5048571  11.4196336
  19.9353731  23.7318325  11.9782364  19.5208049  24.2839909  10.6313002
  21.6604972  35.7513618   5.0187522  22.0305920  36.2665486   5.7355809
  22.4149203  35.5156565   4.4788238  36.8701434  34.1306853  22.9316545
  36.5776467  33.3105016  22.5341916  37.4018025  34.5488262  22.2543597
  12.9125464  20.8360195  20.1859665  11.9852352  21.0646391  20.1222515
  13.3726847  21.6673565  20.0702739  13.7303925  58.0904007  21.1249399
  12.9641199  58.2156181  21.6847420  13.4007037  57.5956154  20.3747892
   8.2993472  21.0472345  63.6137486   8.1042451  21.9331431  63.3082438
   8.4029466  21.1379194  64.5609951  36.4787054  52.4787378  24.1092944
  36.6175866  52.6821756  25.0342584  35.5619216  52.7029943  23.9497662
  27.6601720  75.0827265  30.9618759  27.1864295  75.1006174  31.7934299
  28.1933188  74.2890310  31.0069871  20.6607223  26.0034919  26.4314723
  21.4015532  26.6014814  26.5305185  20.1531625  26.1157799  27.2352195
  30.1141071  62.8711605  26.5031290  30.4615235  62.0601416  26.8743229
  29.4537854  62.5826168  25.8730888  31.4962363  43.2756472  25.3170514
  31.9917679  43.7970304  25.9485888  30.8821869  42.7721405  25.8515239
  20.7605290  47.0118713  32.0665383  21.2732267  47.7367926  31.7089581
  20.1196647  46.8122578  31.3841343  18.9639103  60.1922894  23.7918139
  19.1491759  59.8409414  22.9209137  18.8641667  59.4183016  24.3460917
  56.5717125  65.5573320  56.2927914  57.2430325  65.3122044  56.9295549
  56.8901205  66.3758469  55.9121561  23.1527829  10.7541549   0.6427521
  23.6577177   9.9719518   0.4204234  22.5878191  10.4774857   1.3642102
   1.7769690  42.4110889  36.1523843   2.0106071  43.0120087  35.4448938
   0.8224311  42.4608660  36.2034893  20.2874327  50.2212477  11.7264986
  20.2826071  49.4520283  11.1568367  19.3678510  50.3550529  11.9560599
  25.6502891  26.3250303  19.8012078  25.4616117  26.2278914  20.7345867
  24.7914147  26.3001060  19.3793726  32.9738259  42.0529747  23.5123897
  32.3120308  41.4648104  23.1486273  32.5261092  42.5037241  24.2283583
  26.2452483  40.0133467  23.9618015  26.7212796  39.8860025  24.7824168
  25.6548905  40.7457876  24.1385484  72.0171785  80.2187824  67.0467949
  72.1266079  80.7577896  66.2633848  72.8165722  80.3658962  67.5523233
  28.1160879  35.6207204  12.9285371  28.9530563  35.8883500  13.3081269
  27.6706767  35.1540542  13.6356902  27.3990726  13.3480132  23.1931663
  26.4702702  13.2587743  23.4066939  27.8256607  12.6431882  23.6804843
  13.4355855  54.0956545  36.5767860  12.7800798  53.7137890  35.9930730
  14.2004156  54.2362595  36.0186672  74.3964672  37.3368096   2.9943195
  73.7555027  37.3876333   3.7034136  74.0336609  36.6897297   2.3894328
  12.2031105  43.6341000  16.0766518  13.0580413  44.0559912  16.1622953
  11.7825556  43.7705755  16.9256163   5.3698498  17.2563934  53.7174034
   5.1414388  16.3725269  53.4295845   5.4243523  17.1912241  54.6708250
  21.4519262  18.9922535   0.6809343  22.3890471  19.1850865   0.6517713
  21.4059949  18.0408013   0.7750750  20.4841614  19.7633636  27.4762726
  20.9144926  18.9907742  27.8425407  19.5525408  19.5436120  27.4813676
  25.8244586  39.1669273  15.6293559  25.2663827  39.6483946  16.2400699
  25.4437327  38.2892609  15.5979717  38.8038588  53.6831474  15.9665048
  39.0439034  54.2683983  15.2481079  39.6103334  53.2088757  16.1687386
  17.3600805  20.6110454  24.8647690  17.5745976  19.8128378  25.3475523
  16.7265391  21.0643959  25.4209447  51.9937134  47.8039694   8.3511138
  52.6675844  47.3465204   8.8539737  52.4813795  48.3042240   7.6967704
   8.0418140  49.3042326  17.3627162   8.6944419  48.6043406  17.3412049
   7.4275416  49.0804958  16.6635430  24.4011188   8.4737784   2.2348203
  23.5210824   8.7728834   2.4635160  24.9133301   8.6041451   3.0328661
  32.1322918  33.7094212  13.3014977  31.4673209  33.2394695  13.8046813
  32.9279828  33.6355639  13.8284242  14.7698653  58.8030100  10.7195437
  14.7220170  58.6787176   9.7716540  14.8448789  57.9169512  11.0738063
  33.6941600  39.3142366  26.6186190  33.8779879  38.7499714  27.3696470
  33.0818844  39.9686575  26.9549012  10.5707467  53.2638407  23.2475615
  10.1848423  52.3878860  23.2440281  11.5136695  53.1099224  23.3062029
   5.4136103  62.2203445  11.7635190   5.7188988  62.4868965  12.6306868
   5.0545466  63.0203199  11.3796544  17.5604928  27.2753310  17.6791465
  18.2262790  26.8709946  17.1228456  17.9601681  28.0931735  17.9751647
   6.6766268  28.2078266  47.0592785   5.8066857  28.3794808  47.4197912
   6.5276915  28.0869985  46.1214924  53.9560032  49.5104361   0.5790298
  53.8693714  49.8961973  -0.2927006  54.8800611  49.6249962   0.8008903
  20.5669212  45.6347466  14.9908626  20.6131816  46.2350845  14.2467642
  21.4728904  45.5519962  15.2885282  22.6318598  31.8140435   4.4147354
  22.3016977  31.9052291   3.5209176  23.5734987  31.9684291   4.3391547
  25.5075884  16.8532073  17.3631263  25.6705213  16.2880838  16.6079307
  24.6244478  16.6208684  17.6500285  18.2901549  42.1537399  29.0761852
  17.9873419  43.0516911  28.9412093  19.2041636  42.1639442  28.7920785
  34.4372392  61.3573217   4.3632713  33.6274743  61.7497492   4.6896377
  35.1320267  61.8061972   4.8449472  27.3466539  50.1639271  21.7983890
  27.6976466  49.8922968  20.9503007  26.9269323  49.3774223  22.1469188
  29.6438575  43.2173252  23.1659031  30.0691772  43.8970661  22.6431394
  30.1937413  43.1352186  23.9450788  13.1087112  52.7748632   2.6085860
  12.5372124  53.1072044   3.3008081  13.2627845  51.8599129   2.8438658
  28.1726217  41.9166374  26.1195230  27.9363656  41.0162210  26.3423800
  27.3841333  42.2779131  25.7145596  24.4909835  68.7503719  52.1236086
  23.8170624  69.4097614  52.2887468  24.0027738  67.9677773  51.8678141
  41.4712620  50.8178234   1.2378356  40.5233622  50.8459234   1.3679503
  41.6237307  51.3660955   0.4681697  19.8720479  53.0015469  18.5896003
  19.9586105  52.8049421  17.6568162  19.7648072  52.1462154  19.0057075
  26.7201924  46.7744541  21.0606766  26.8435931  45.8446980  21.2518978
  26.6824865  47.1929169  21.9207335  12.8091311  55.3785038  24.1733479
  13.5069108  54.8461246  24.5553231  12.8813934  55.2276421  23.2308793
  45.4778194  47.3306561  16.3454461  45.8422041  46.7943811  15.6412697
  45.6828117  48.2305717  16.0917521  54.2459631  36.2564969  10.5344319
  53.9767647  37.1568966  10.7162023  55.0609589  36.1466527  11.0242772
  23.8096118  24.6291137   9.1627061  24.6218991  24.3565965   9.5894998
  23.3865285  25.2057028   9.7989267  16.0303092  34.2936563   6.1105126
  16.3744211  35.1691604   6.2874675  16.8087482  33.7437081   6.0220772
  25.9372830  51.3678360   9.7527224  25.7668233  51.7609549  10.6086612
  25.1662874  51.5883398   9.2300588  27.5785875  33.0258942  25.7899237
  27.4176836  33.9040637  25.4447269  28.5154247  33.0135226  25.9859157
  43.9464903  44.6633101  17.3161137  44.1654491  45.4040575  16.7507982
  44.7146463  44.0938377  17.2729921   4.9336725  57.0786238  26.7754364
   5.6989914  56.8123436  26.2659144   5.1132625  57.9862452  27.0208097
   2.8863391   7.1122855   2.1830730   3.4090948   6.3634622   2.4698170
   3.5261655   7.8089541   2.0364188  23.0648422  43.8979101  30.6101847
  22.2495294  43.7608480  30.1277828  23.2123709  43.0718899  31.0707879
  29.5203257  39.9089932   1.1306249  28.7299657  39.4209886   0.8995057
  29.3225098  40.8137417   0.8886877   9.6404678  45.2224350  25.8758950
   9.8178744  45.0583506  26.8020868   9.3962795  44.3666124  25.5235171
  55.6843948  63.9443445  66.2120438  56.0895252  64.8100138  66.1599493
  55.7711601  63.6942577  67.1319151  19.4451416  61.7902231  17.1784878
  19.6034479  62.0633936  16.2748563  18.5251617  61.5262032  17.1912134
  46.7867613  67.7932835  29.1360664  46.1665726  67.6711082  28.4172702
  46.3843155  68.4635639  29.6883249  11.3347828  59.9817038  19.6569192
  11.9197524  60.6627369  19.9889350  10.6205893  59.9482489  20.2933455
  11.7270601  47.0906162  36.3488889  12.4778724  47.5169945  36.7620587
  11.2627399  47.8004265  35.9052587  10.6805611  61.6280985  25.9679127
  10.7174230  62.4271965  25.4422569  10.2024567  61.0040426  25.4218388
   7.8445441  50.3622770  45.0269794   8.5020804  50.6171322  45.6742287
   7.2626370  49.7662973  45.4986000  21.6519403  28.4517026  16.1280620
  20.9659338  28.0077887  15.6294978  21.9605660  29.1456032  15.5454063
  85.2598763  79.6359253  63.1504059  85.0022984  78.8925838  63.6956882
  85.8964920  80.1137352  63.6820507  64.9328470  72.9514170  69.7122097
  64.8773098  72.0551682  70.0437069  65.1572466  72.8511381  68.7871075
  23.4820247  35.5018950  18.9414656  23.9491081  35.4978180  19.7769582
  22.7439713  34.9075890  19.0767753  10.3077984  45.7980394  28.8861752
  10.1666451  46.0026741  29.8105288   9.6632522  45.1180315  28.6902666
  33.4118462  30.3232193  18.0890191  32.9648590  29.4828367  17.9880524
  34.1342878  30.2870870  17.4621177  17.3250246  43.0629253   7.6012176
  16.9885802  43.4879398   6.8122947  16.5516961  42.9280281   8.1489372
  81.5005016  16.8065798  57.7131128  80.8248615  17.4389756  57.9576969
  81.4838791  16.7964292  56.7561102  36.7564797  31.1804914  26.2025738
  36.1280465  31.6355133  25.6419873  36.6082382  30.2518606  26.0239601
  28.8682532  53.1699562  23.5565424  28.3804512  53.2154417  22.7342224
  29.1576576  54.0687752  23.7133813  17.5332069  37.5715375  28.5582018
  17.8951180  38.2876539  28.0362535  18.2575655  37.2941089  29.1190672
  18.7086523  57.8180027  29.3407536  19.3625331  57.1857023  29.6388626
  17.9744852  57.7060843  29.9446630  30.4021311  24.2171240   7.9355687
  30.4243922  23.9200759   7.0258993  30.8163166  25.0798512   7.9160130
  73.5454178  77.7381611  69.5130062  73.4258842  77.0209265  70.1355171
  73.9560270  78.4343910  70.0257349  16.8342674  11.2921774   0.4181972
  16.7857099  10.6409657  -0.2816574  17.7035415  11.1694360   0.7996792
  30.4535580  45.9947968   7.7837074  31.2248015  46.5613842   7.7638525
  30.3564548  45.6907177   6.8813002  23.0166078  29.8388529  29.9113083
  22.6605749  30.6186676  29.4854474  23.2795024  30.1398730  30.7810807
  49.6030712  28.0535698   5.5247813  50.0765276  28.0580211   6.3566774
  49.0830946  28.8570619   5.5408269  30.6694460  38.5222244  12.3669279
  30.7694864  37.8403115  13.0311716  30.0066519  38.1779981  11.7682242
  27.0113969  78.7488651  59.8317480  27.5394893  79.5449257  59.8920631
  26.7300010  78.7168217  58.9174080   2.6856673  53.4786701  34.9927688
   1.7473966  53.6439991  35.0852132   2.7424073  52.7761173  34.3451309
  25.0067663  57.0524788  20.7200813  24.2360902  57.5438070  20.4356742
  25.7332492  57.4452829  20.2361798   8.2733715  59.8486090  24.7790384
   7.9716730  60.5863571  24.2490005   7.6250744  59.1615820  24.6243310
  26.7248178  45.6987333   7.6609415  25.8447838  46.0671282   7.7387899
  27.2762680  46.4440393   7.4229091  28.6685514  68.5886955  18.3382928
  28.0950475  68.7651777  19.0840673  28.3540320  67.7560949  17.9860401
  18.3367324  45.6333065   8.7952930  18.8985467  45.6334448   8.0203116
  18.4823501  44.7765493   9.1965342  31.8396711  54.4828320  21.1203051
  30.9648156  54.6555471  20.7724118  31.8219018  53.5575008  21.3645959
   7.2464567  56.5450382  21.5195656   7.9779100  55.9724379  21.2886119
   6.6256875  56.4434481  20.7980680  28.8468432  34.2479300   0.4834751
  28.7678170  33.3889294   0.0686171  29.5523238  34.6817160   0.0035188
   9.2964303  21.8179584   1.6719058   9.5802307  21.6609979   0.7713212
   9.1114277  20.9457731   2.0201854  18.2336187  55.2517700  42.5975084
  17.5134778  54.7299480  42.2434855  17.9034328  55.5791616  43.4341812
  68.1760263  12.0635617  61.5504694  67.9019642  11.6629374  62.3754692
  67.6435328  12.8558850  61.4804411  26.1083579  43.3192539   5.9409332
  26.4268398  43.8196898   6.6921753  25.7789850  43.9820147   5.3338975
  12.7375960  48.2186413  18.8053215  13.2960606  48.0049801  19.5527816
  13.3504570  48.4326267  18.1018698  26.1170244  30.8558178   9.0409893
  25.5238461  30.1096654   9.1283149  25.8834410  31.4337802   9.7673714
  20.1014972  41.5646362  19.8563862  20.1058340  42.4015331  20.3209424
  20.2478623  41.7986917  18.9398575  77.0365238  70.8213091   2.4155866
  77.4562597  70.8937359   1.5583774  77.3402786  69.9818087   2.7608442
  48.1450796  52.9930687  12.9770064  48.1124687  53.0101156  13.9334989
  47.2755480  52.6922846  12.7130365  21.0271978  39.4144392  17.0426548
  20.0993395  39.5024967  17.2607291  21.1790705  40.0779200  16.3696313
  41.4161825  58.8208055  17.8997588  40.8873081  59.3574905  18.4900928
  41.8462372  59.4520235  17.3228300  36.2553334  55.0341511  21.6967249
  36.5914822  55.9241676  21.5913248  36.1824131  54.9162626  22.6438332
  30.0275373  66.2026072   8.2971680  30.2251530  65.9537649   9.2000848
  30.0592732  67.1592760   8.2999653  26.1314392  63.1596041   6.2619650
  26.8696284  63.5123396   6.7588377  26.3636017  63.3137274   5.3462255
  34.9001861  57.8690434  18.6058640  34.7767091  57.2181559  17.9149723
  35.7303095  58.2936001  18.3893597  80.6682777  17.3776352  54.1098595
  80.4559708  17.6943338  53.2318735  81.6233635  17.3145175  54.1172600
  41.6253996  74.0289307  34.7845459  42.2994900  73.4388399  35.1216340
  41.8936825  74.8966122  35.0868392  54.3539095   4.4060254  12.1747029
  54.0350199   5.3010345  12.0585179  54.7636795   4.1872269  11.3377750
  43.5806799   5.5344051  10.8032596  43.5992002   6.4748746  10.6260431
  43.0584192   5.1665878  10.0903881  59.9266672  45.1161671  19.0223634
  60.2336073  44.2114782  18.9626753  59.3524837  45.1242447  19.7881818
   2.3601341  19.0866840  68.7022209   2.7824691  18.7753308  67.9016447
   2.7661443  18.5748792  69.4018221   9.8302150  74.0336704   6.3813496
  10.3597212  74.5153904   5.7458967   9.0072614  73.8596916   5.9245002
  85.6771564  13.1764698  21.7841530  85.5951595  12.2232354  21.7549658
  85.3715706  13.4164798  22.6589346  35.0434113  49.4057608  22.4577117
  35.1686382  50.2913284  22.1166563  34.8907185  49.5292664  23.3945489
  34.3489051  54.1531467  19.9679708  33.4774613  54.3605185  20.3053403
  34.9407792  54.7074699  20.4765415  54.1827059  13.1404996  17.7132332
  53.2423925  13.1195855  17.8910005  54.4921684  13.9320338  18.1536174
  44.0394163  50.2662611  16.6301680  44.3201256  49.8682928  15.8061194
  44.4652796  51.1234570  16.6394734  32.9827666  43.7316656  17.4055696
  33.4776592  44.1113329  16.6795063  33.5983968  43.7270212  18.1385159
   9.3912178  49.9963856  47.6895285  10.3068185  49.7924566  47.4989510
   9.1690487  49.4314575  48.4296179  39.8470616  50.5871677  15.5234432
  39.2845511  50.3951836  14.7731400  39.3664575  50.2445126  16.2769926
  50.2758598  55.9292889  19.4252384  49.6777534  56.4296007  18.8700855
  51.1490726  56.1909103  19.1332090  32.3162961  61.1219406   5.9606284
  31.4578581  61.2049770   5.5453914  32.2911358  60.2689266   6.3941818
  62.1504641  50.5648994  25.9582090  61.8608761  49.8918819  25.3422403
  62.6203537  51.1990309  25.4166293  45.0365973  79.2552185  12.4833667
  45.4148722  79.3719387  13.3548689  44.0906334  79.2728758  12.6285315
  54.1972065  12.0803201   8.2347274  53.3844995  12.4323952   8.5977435
  54.8852253  12.6288974   8.6114556  25.6102109  68.9996290  23.3573413
  24.8593116  69.4335365  22.9522419  26.3193679  69.6394157  23.2940531
  49.0853167  68.0373383  39.3512130  48.6700392  67.5408411  40.0563860
  49.1138554  67.4277878  38.6137390  75.3545475  67.3966026  11.9053888
  74.9888706  68.0383587  11.2965679  74.5939350  67.0446682  12.3678267
  53.8085222  78.2085896  16.7276073  53.8974953  77.7264309  17.5497031
  54.3252373  77.7058315  16.0979462  32.8710008  72.5745535   4.9640423
  32.7230906  73.4848738   4.7077763  33.2682896  72.6318836   5.8330107
  70.8299446  66.6787529  38.9422822  70.4443598  67.0475960  38.1476068
  70.5538225  65.7622480  38.9393663  29.1380930  47.8533602  14.2161608
  29.3509984  47.1406031  13.6137640  29.4734764  48.6394739  13.7851453
  34.6029639  49.8354721  12.1085405  33.9192939  50.4614162  11.8697476
  34.3646097  49.0322733  11.6456258  30.1303649  62.8078222  15.0985992
  30.9789371  63.1748199  14.8506570  30.0734687  62.9527569  16.0430503
  37.5270534  49.3100357  19.5730007  36.9658995  50.0815487  19.4948745
  38.1255174  49.5207453  20.2897120  25.4157567  17.9352593  60.3597355
  26.3331318  17.9032290  60.0883913  24.9221659  17.8956711  59.5405722
  51.6613674  79.9167871  16.0591161  52.0337868  79.5900488  15.2401054
  52.0776749  79.3875885  16.7394614  39.3532348  55.6743050  14.2457390
  40.1440239  55.8790588  14.7446978  38.9791989  56.5282345  14.0286386
  25.4210925  65.9298801  18.6523640  25.5166888  65.3044081  19.3706107
  26.1406946  65.7220173  18.0563784   9.5359474  63.2290792  36.1347842
  10.2024376  63.6043930  36.7102528   8.7041396  63.4713316  36.5417743
  60.8670616  55.0670958  22.5269961  61.6485548  55.2568054  22.0078468
  60.6565523  55.8969975  22.9549861  13.5835803  78.8075161  11.4559531
  13.3999717  79.2378712  12.2910047  12.7256036  78.7103367  11.0428393
   6.0094500  55.3256130  29.0266466   5.4331923  56.0105705  28.6875439
   5.6168312  54.5084906  28.7194157   0.2117883  36.5496993  50.9035778
   0.2190432  35.6318307  51.1750460   1.1217888  36.8329525  50.9924507
  45.0054693  72.8198195  25.0909758  45.9284163  72.6672649  25.2937913
  44.9138212  72.5523710  24.1764784  41.3943100   6.4495862   2.9791236
  41.8153763   6.5220159   2.1225691  41.0313559   7.3202050   3.1419748
  31.8390894  69.2397261  13.9505577  32.7371407  69.5597267  13.8649070
  31.3469434  69.7277403  13.2903528  38.4920049  50.2090597  12.2111285
  39.4244432  49.9928904  12.2190690  38.1050229  49.6243095  12.8627026
  37.5996280  65.2362156  33.1786966  37.8562260  66.0953760  32.8436947
  36.8453336  65.4137516  33.7406158  51.9918203  67.7002287  24.6929145
  51.2909460  68.3259058  24.5097876  51.7827559  66.9405413  24.1494012
  40.0989199  50.8916044   8.4736359  39.6421289  51.6246128   8.8862842
  40.1827288  51.1480761   7.5552511  25.7452607  23.6896324  66.5124702
  25.1726127  23.0605578  66.0736370  26.6238236  23.4711647  66.2016153
  37.8695798  46.5086985  19.7039342  37.8993487  47.4646664  19.7423267
  37.0880508  46.3139868  19.1866994  38.3222508  48.6412811  17.0062673
  38.6398458  47.7509642  16.8555927  38.2263231  48.7037373  17.9565978
  62.7540064  45.0811815  13.4185827  62.8691101  46.0310745  13.4448218
  61.8231201  44.9476957  13.5970902  20.8682656  45.8552980  23.5789776
  21.6530371  45.5506325  23.1234050  20.1617527  45.3135157  23.2274914
  78.4731054  17.5525975  51.0432243  77.7060080  18.0807292  50.8221674
  78.1801891  16.9946027  51.7636919  20.6950736  42.1033907   2.2281213
  20.0308728  42.5731659   1.7237608  21.5029716  42.5934362   2.0751825
  31.5111208  61.3174820  22.9239273  31.1472154  60.7084846  22.2813344
  31.4006948  62.1806479  22.5251985  50.2670479  69.4632483  23.8872194
  49.6790409  69.3352699  23.1428385  50.6687737  70.3178978  23.7309361
  51.7670202  52.5554180  18.6282444  52.3653078  53.2997322  18.5628581
  51.0411215  52.8778076  19.1624439  59.5345449  26.0918212  14.2493773
  59.0557003  26.8011212  14.6781361  59.1073322  25.2931118  14.5588636
  42.1411467  58.5689974  14.3543494  42.8473139  59.0892315  14.7376502
  42.1425295  58.8091278  13.4277606  49.2640781   0.4579071  13.6314774
  48.5524702   0.9310915  13.2002592  49.3501568  -0.3533783  13.1308401
  28.1549931  72.0720005   6.3856375  27.4530435  71.8433571   6.9949168
  28.0824995  71.4257050   5.6833005  42.5112820  65.5836916  31.2357402
  42.3376179  65.1758623  32.0841193  42.3776627  66.5192270  31.3878798
  63.9382124  59.4566965   2.5445175  64.2746592  59.6544170   1.6704793
  64.0204954  60.2805519   3.0248567  50.2447796  78.4844971  18.8713229
  49.6718168  79.2510891  18.8881147  50.2914190  78.2002926  19.7841680
  69.7510433  68.8083363  44.0772247  69.2045498  69.5919847  44.0182972
  70.6196547  69.1387701  44.3064880   5.1842070  44.4851685  64.3429804
   4.9782261  43.5643578  64.1819906   5.9948879  44.6376896  63.8574219
  60.3012943   2.9973826  15.3722715  60.4497385   3.6975187  14.7366571
  59.5790815   2.4885681  15.0038290  45.5442142  39.2297149   3.9513874
  46.1920071  39.0707493   3.2648563  44.8598194  39.7420907   3.5209122
  40.6865788  73.4235859  43.6125278  41.0310841  72.6698494  43.1335402
  41.2310839  73.4775162  44.3979216  43.8108110  69.7260666  28.8877606
  43.6698103  70.3131104  29.6305466  43.7790871  70.2981377  28.1209707
  70.0349236  60.2755594  14.5133185  69.1225100  60.2256632  14.7983432
  70.3432989  59.3697214  14.5375490  29.2594004  59.3636465  18.7266159
  29.1162777  59.5902491  17.8077042  30.1910734  59.5285177  18.8716531
  43.6442089  68.7411547  15.4369354  43.1836176  68.4782219  14.6400964
  43.9807415  67.9220867  15.8003926  27.3525143  59.1576862  27.1513724
  26.9922233  59.9129200  26.6865635  27.9247022  59.5374680  27.8181577
  47.8740406  65.0983620  28.9370036  48.7878513  65.1291084  28.6537504
  47.5840282  66.0101604  28.9097476  32.7931786  60.6400537  12.7051592
  31.9387436  60.4289055  13.0814433  33.4209895  60.1838112  13.2654512
  50.6709337   2.2935760  10.6254566  50.3259850   1.9582570  11.4529848
  51.6003084   2.4451764  10.7972455  29.9384332  50.3878403  23.0033135
  29.5964479  51.1247587  23.5095096  29.3221307  49.6750641  23.1716895
  32.5971889  28.0809236   5.1817340  33.4647369  27.7087355   5.3400564
  32.0117974  27.3238587   5.1616740   7.2377872  52.3300791  25.8170700
   7.9056275  52.9580593  26.0924983   7.7186894  51.5140009  25.6793094
  57.8002167  66.5524721  12.7560651  58.3256197  65.7586432  12.8561568
  58.2246637  67.0325470  12.0450068  21.6862988  68.3300066   0.7890084
  21.6081882  68.9825678   0.0930954  22.3843050  67.7459860   0.4924617
  41.7564535  37.9672909   3.1355846  40.8732986  38.3361721   3.1496760
  41.9851351  37.8580260   4.0586215  46.8100786  62.4393940  18.6867881
  46.1404514  61.7593670  18.6133528  46.3342285  63.2593679  18.5547078
   6.5194857  17.6182497  68.1314564   7.4497372  17.4075556  68.2119036
   6.2439322  17.1819401  67.3252678  42.3199940  53.7062216   3.4445557
  42.7664995  52.8613949   3.5005313  41.9216871  53.8242197   4.3069133
  24.9206185  39.5589781   9.5577019  24.3105292  39.0183687   9.0559411
  25.2231073  40.2198315   8.9348006  74.5414448  72.3078108  66.5451336
  74.4850540  73.2552147  66.4207268  75.3959036  72.1703815  66.9540834
  22.9264426  42.0161104   8.3473504  23.7898993  41.6050625   8.3059371
  22.9810739  42.7502584   7.7355754  50.7789087  64.9996328  28.2404518
  50.5709457  65.6139565  27.5364709  51.6108036  64.6061945  27.9770327
  65.6155062  13.7397122  20.8734560  64.7049618  13.9823580  20.7053137
  65.8920717  13.2824242  20.0793338  17.4113011  80.7942390  13.6525881
  16.5453529  80.9679031  14.0216482  18.0198526  81.0013103  14.3618250
  54.7051001  56.3108921   1.1383135  54.6522379  55.7568455   0.3595524
  54.3486166  57.1536303   0.8573410  16.1655450  30.9373140  62.8665400
  16.3267910  31.4410210  63.6643553  16.4765060  31.5025926  62.1594381
  68.6814404  73.6974859  10.5800366  68.3241224  74.2346382  11.2871599
  69.4497776  73.2755613  10.9645772  34.1463208  67.0964479  15.7312644
  35.0977969  66.9919205  15.7311678  33.9888763  67.8571224  15.1719666
  69.8555851   0.1181506   1.6982599  70.1512957   0.6150752   2.4610531
  68.9120150   0.0211332   1.8266989  39.6350741  76.2294245  30.2023458
  39.3588471  76.3717937  29.2969942  38.9307547  76.6062975  30.7297277
  12.9094815  48.8296556  15.6863618  13.1753540  47.9159260  15.7894909
  12.3842609  48.8374233  14.8861659  50.8623075  45.5377960  12.0021963
  50.6907988  45.6470442  11.0668457  51.8059683  45.6720781  12.0899570
  58.5247660  61.7602539  19.8177171  59.2189312  61.5342855  20.4368329
  58.6888456  62.6773787  19.5981824  73.3308268  28.6938834  61.8468952
  73.0132341  28.1917572  61.0964012  72.7622318  28.4292841  62.5700235
  62.9199648  57.2854614  16.3532233  63.3124638  56.7212296  15.6870294
  61.9796610  57.1208143  16.2828147  44.4364166  56.2690926  11.6410589
  44.7169209  56.5399408  12.5152385  44.1109085  57.0721674  11.2344313
  46.0159779  64.2361164  12.0675564  46.4529419  63.3862782  12.1229470
  46.3508224  64.7269678  12.8180039  24.3313217  29.8671460  65.8410263
  24.3279934  29.9731088  64.8897123  24.2249560  28.9257193  65.9775305
  18.5804355  66.8421793  16.4073408  17.7233589  66.9298410  15.9902465
  18.5367501  66.0059261  16.8710196  39.4116998  71.4289284  19.5119023
  40.0888729  71.1505175  20.1284695  39.7568822  72.2330809  19.1240633
  54.5464373   7.7536565  38.9385104  54.1693544   7.6762193  38.0621290
  54.8125744   8.6707401  39.0045667  37.5985575  73.5223055  19.5269442
  36.6840863  73.7425470  19.7043347  37.6231027  72.5656700  19.5488083
  43.8833380  60.1374435  15.8839309  44.3272877  60.2296257  16.7269254
  43.4024858  60.9579611  15.7754791  54.8273897  53.7444830  22.3760176
  54.5812130  53.0074739  21.8170500  55.5133820  54.1979694  21.8861175
  32.3331928  26.0199523  13.3108151  32.3982143  26.9746137  13.2858276
  32.0669723  25.7747388  12.4246836  61.5528536  64.3255615  16.7727184
  62.1017504  63.5531712  16.9082201  61.9512606  64.7747278  16.0272312
  20.5754781  29.4808865  25.3245139  20.7658720  28.7946701  24.6849155
  21.4337850  29.7422934  25.6579947   5.7581812  46.3457870  39.8721504
   5.4020572  46.9380474  39.2098594   5.3415394  46.6212654  40.6887007
  42.5840330  74.5912075  41.3573265  41.8601179  74.5563984  40.7320499
  42.8724861  75.5037308  41.3392210  18.8206637  58.3271646  14.6890974
  19.2014337  59.0613365  14.2071867  17.9159796  58.5925961  14.8543942
  17.7574492  80.3630257  39.7745180  16.9034696  80.3262997  40.2053308
  18.3813536  80.1193142  40.4583120  44.8993587  59.1649008   6.2068695
  44.8584843  60.0670433   6.5242082  45.8157825  58.9125872   6.3197380
  33.3258486  76.8467188  26.5616775  33.0918837  77.6449728  27.0352626
  33.3550191  76.1679983  27.2360086  35.4343390  45.8074808  21.7595291
  35.9435225  45.5277872  22.5202751  36.0801268  46.1937761  21.1679506
  25.4863095  43.0760479  28.9342475  25.1095295  42.9985905  29.8107576
  24.8369336  42.6730537  28.3579326  25.1234865  36.8987727  60.9882975
  24.8330307  37.2233200  60.1359272  25.4652238  36.0231423  60.8074093
  63.6742067  76.5097141  67.3784685  64.5269251  76.0765123  67.3404789
  63.1770039  76.0038662  68.0212307  39.1251588  61.2704182  12.7173626
  38.3478904  60.9507084  13.1754816  39.6720409  60.4932833  12.6024413
  20.5894637  47.2510767  18.0013430  19.6396577  47.1390867  17.9618537
  20.9399676  46.4869308  17.5436771  17.6593173  41.1287832  13.1504750
  16.9862902  40.9000254  13.7915182  17.1703815  41.3428831  12.3559082
  17.5647092  80.0933743  68.2637739  18.0868542  79.4950056  67.7294016
  18.2061613  80.5506897  68.8074970  50.4139566  32.5227094  14.0533555
  49.9048233  33.1833935  14.5229447  49.7652340  31.8805003  13.7653339
  33.1996918  50.7796860  27.2152591  32.8585744  51.1994028  26.4255071
  32.9322386  51.3588572  27.9288816  47.3547602  57.4362421  21.2703633
  47.5040054  57.4975300  20.3268576  48.2318258  57.3681593  21.6476631
  15.1564610  43.6946487   9.3988812  14.7283411  44.0126228  10.1937640
  14.4347012  43.4588242   8.8160592  42.2967863  14.4212437  10.2297938
  42.0875883  15.3339851  10.4282141  41.8944454  13.9231718  10.9413278
  80.8731365  15.5282366  67.8399658  81.6237831  15.8735561  67.3567343
  81.0909367  15.6782234  68.7599087  30.1784158  60.7075930  13.1837356
  30.2667212  61.5205288  13.6813009  29.7664762  60.9734964  12.3616445
  50.8014011  52.3523855  12.6224577  49.9491978  52.6017809  12.9799318
  51.3694477  52.2754049  13.3890259  47.6106787  58.9900112   6.8599266
  48.3510399  59.4218588   7.2860813  48.0091000  58.4483004   6.1787224
  21.0773778  68.1468773  14.8035026  20.4880643  67.4824333  14.4464910
  20.7059336  68.9789104  14.5102835  28.3259702  46.5270519  23.7747693
  27.6313996  47.0896196  24.1172981  29.1353703  46.9977140  23.9737248
  77.4355078  24.5280838  65.1462841  78.1531811  23.9554906  64.8755264
  77.6612425  24.7892380  66.0390711  60.1665115  58.2365322  23.6730957
  59.5731544  57.6653099  24.1608119  59.7453451  58.3476210  22.8207397
  27.5301909  56.1779785  13.8157415  28.1213021  56.9052839  14.0102684
  27.0198107  56.4786625  13.0638576  25.1611018  43.7464142  65.5175781
  25.7973909  43.8996553  66.2160635  24.3924642  43.3946943  65.9667110
  33.4732985  44.7499084  14.6990955  34.1565299  44.7617483  14.0288079
  32.6579666  44.6473026  14.2082405  30.5516577  21.1455631  64.8896074
  31.4359832  20.8645105  65.1245737  29.9903703  20.4169965  65.1548958
   3.2345530  68.6497831  51.2835503   2.8686413  67.8383589  51.6355896
   2.5428128  69.0010118  50.7228661  53.6776209  76.9791269  19.0650368
  54.2342520  76.2232637  19.2522931  53.9650488  77.6480532  19.6864498
  33.0852938  47.8252745  21.1268640  33.9178443  47.6030159  21.5436268
  33.2950711  48.5589170  20.5489421  70.9535408  62.7626896  14.5956016
  70.6697226  61.8638992  14.7625005  71.1862612  63.1045723  15.4588437
  44.6827173  61.7791271   7.1353710  44.2476273  62.6242495   7.2480410
  44.9751997  61.5411377   8.0151689  59.9467421  72.9708099  34.0787625
  59.7194290  72.0612669  34.2718720  59.3432045  73.2255220  33.3808374
  43.7724733  80.0745869  18.0727220  44.3780756  80.1677322  18.8081121
  44.2136860  79.4720602  17.4739468  36.9901752  80.2435684  23.3373928
  37.8726912  80.3833771  22.9940963  36.7338109  79.3864202  22.9970813
  34.2764473  73.2872105   7.2562224  34.3061280  73.8871288   8.0015081
  35.0449729  73.5162830   6.7336082  33.1013966  41.7084551  12.7659607
  33.5681868  42.3887730  12.2806680  32.7170062  41.1520100  12.0885801
  17.2085524  45.6801033  20.5293465  16.7834330  45.7775450  19.6772838
  16.4983487  45.7766390  21.1637926  27.6358151  54.3945503  10.9557962
  26.8409109  53.9134550  11.1858094  27.3697257  55.3139973  10.9625971
  40.7785177  67.2471476  19.7868550  40.9560108  68.1791401  19.9138224
  39.8914742  67.1240473  20.1248384  46.7471123  62.7502394  24.1257954
  46.0878754  63.3602238  24.4567966  46.5713453  62.6941109  23.1865478
  21.5180707  53.7043095  13.7765157  21.9484019  53.0935144  13.1782031
  22.1907997  54.3540430  13.9802599  26.4004517  43.3165836  68.1893969
  26.6968989  43.5955143  69.0557384  26.0519695  42.4358463  68.3275795
  74.2286348  58.7718344  18.5613072  74.9927711  58.2998800  18.8923430
  73.9074612  58.2313395  17.8395426  21.6190004  65.7834864   9.0384686
  21.3394690  65.4250717   8.1960726  21.4114213  66.7162371   8.9826405
  19.2530549  55.5896044  18.1200600  19.4553256  54.6932697  18.3882058
  20.0952172  55.9538841  17.8474867  54.3664789  56.2055111  12.0594323
  54.5809174  55.5248404  12.6973498  54.1985893  55.7280254  11.2469959
   7.5350136   5.1843488  68.1472301   7.5636905   5.8473295  67.4573994
   8.0394936   4.4508195  67.7955675  51.1750937  65.7057047  22.9032302
  50.3588009  65.9423065  22.4628758  51.0924435  64.7672844  23.0728555
  14.8933291  26.5055370   8.1869411  15.4835701  26.7003226   8.9148879
  15.4675758  26.4399123   7.4239433  58.7924814   5.2879763  61.5187740
  59.2979574   5.2263069  60.7082701  59.4358873   5.1481068  62.2135401
  27.5696659  72.8887177  36.2386346  27.9504085  73.7410641  36.0270405
  27.3087192  72.9641628  37.1564841  40.8289671  53.4566212  12.4302077
  39.8779535  53.3693314  12.3654950  41.0551834  53.0125904  13.2474554
  26.9789290  29.3376684   6.1565834  26.2397337  29.4528604   6.7537034
  26.5807819  29.3006086   5.2869076  13.2125831   7.7063876  46.8981266
  13.4326553   6.7748481  46.8922567  13.5459840   8.0259794  47.7365398
  50.1243401   8.5794741  15.6173921  49.8085976   8.6429805  14.7160017
  49.5399618   7.9445857  16.0317004  22.9583526   8.0087817  63.7891769
  22.1885228   7.8785878  64.3429279  22.6537609   7.8073764  62.9043674
  44.7109032  65.7372475  51.8039417  44.5469904  65.8980608  50.8746958
  45.6111193  66.0314751  51.9427824  30.3148746  59.3297577  24.9997687
  30.5704522  60.1366186  24.5526743  29.6480060  58.9426041  24.4326496
  19.1481876  54.9996185  28.3840466  19.8046279  55.6615210  28.6013103
  18.3745086  55.5034542  28.1314611  48.4141207  50.3290224  16.3516414
  48.6398554  49.4155788  16.1758649  49.2526913  50.7903004  16.3357162
  68.4069872  50.3389645  29.1229939  68.9456940  50.6572199  29.8473835
  69.0065050  50.2999163  28.3778191  55.5463457  57.6540756  25.0976253
  55.7023287  56.7468071  25.3598595  54.6120787  57.7914047  25.2542138
  56.9687414  78.7402725  17.1285319  57.1802521  79.5195007  16.6144323
  56.2132931  78.9992571  17.6562226  23.6603761  61.2101698  37.0294690
  23.8743591  61.4006853  37.9427838  23.5123229  62.0691681  36.6339517
  24.8686290  21.7130995  64.4699144  24.7263694  22.3367190  63.7578106
  24.1665673  21.0702968  64.3691874  51.3587904  67.3175240   5.5172884
  51.2023592  67.7820778   4.6951246  51.1113834  66.4117289   5.3314042
  60.7103634  36.9141364   3.7833133  60.3128242  37.4634862   4.4588950
  61.1375856  37.5335526   3.1916761  56.5842342  47.9179764  23.7270260
  56.5862894  46.9610977  23.7517643  57.5026608  48.1624794  23.8407588
  51.5535545  70.7189512  11.6761899  52.5039577  70.6859350  11.5672076
  51.3404226  71.6513681  11.6386986  44.4832897  52.8291702   7.8793579
  45.3020191  53.0767822   8.3090180  43.8801336  52.6471615   8.5999882
  54.1559935  51.5079975  12.1664405  53.7144661  51.0543585  11.4484560
  54.8553324  52.0048189  11.7417920  27.0241714  77.5674343  17.1983087
  26.9578290  78.4570551  17.5453019  26.4227891  77.0543528  17.7380514
  42.1512365  56.3645124  26.2465596  42.3972988  56.5051413  25.3322792
  41.2008333  56.2528133  26.2243462  23.9750719  37.8265810   1.2075801
  23.1337261  37.9025984   1.6576807  24.3177843  38.7201118   1.1879285
  29.0091491  68.2450724  26.8866754  28.5965848  67.4917507  26.4641500
  28.9334583  68.9509678  26.2446332  56.7507982  50.5090189   8.5760117
  57.2643757  51.3126802   8.4947807  57.3863983  49.8047066   8.4487998
  43.1029797  61.9515038   4.6266371  43.6028481  61.5939236   5.3604645
  43.7344933  62.0030594   3.9091679   1.6527407   3.5749185  27.6714468
   2.3070504   4.0481666  28.1853986   0.9109233   3.4692511  28.2670736
  67.9543543  79.2126751  10.1857603  68.8033009  78.8318539   9.9610448
  67.9527950  80.0665092   9.7530997   8.4034956  29.2395020  55.2436161
   9.0307236  29.0463924  55.9404087   8.6715883  30.0959325  54.9106169
  80.2816391  12.5044274  38.7127399  80.9406090  13.1923151  38.6189675
  79.8592567  12.6900995  39.5514035  52.4762058  67.5019836   8.0256999
  52.0300341  67.4471235   7.1806246  52.7760124  66.6091633   8.1966597
  57.8408813  20.5326939   1.0757340  58.7354517  20.3553224   1.3664517
  57.8456068  21.4599776   0.8383407  15.3332889  77.0893908   4.5417225
  15.2913332  76.5402365   3.7588450  15.9624469  77.7756786   4.3194470
  39.5363116  58.3694601   5.8377296  39.8632526  57.8226852   5.1233214
  39.7670197  57.8883648   6.6324311  65.6786537  81.0953522  11.6680038
  66.0844707  80.3035736  12.0210469  66.2878561  81.3965893  10.9939408
  73.6977053  71.6664028  14.4993544  72.9359674  72.2431135  14.4411051
  73.3296871  70.8006334  14.6760738  69.8955011  10.4268253   9.6659410
  69.0681458   9.9970663   9.8827767  69.6424055  11.3068151   9.3870288
  61.3181639   2.0674510  33.9697027  61.7174578   1.5014736  33.3090472
  61.8642616   2.8535795  33.9733100  73.6046076  78.8766623  23.5775018
  73.7573910  78.0432224  24.0227818  74.4803143  79.1958380  23.3595777
  54.8932838  76.8553257  14.2985129  55.8167553  76.9636440  14.0711331
  54.5582247  76.2354231  13.6506820  38.6235213  71.9259548  29.0320444
  38.9310789  71.0282660  28.9063597  37.7604413  71.9435406  28.6185026
  15.3755105  12.1937168  64.0660381  15.2474153  12.6307261  63.2241106
  15.9144616  12.8018141  64.5719814  61.9933748  73.3536100  35.9233451
  61.2296581  73.5522270  35.3815675  62.2875595  74.2060518  36.2443209
  56.8702745  17.4157524  69.6467876  56.7559862  17.8449881  70.4946852
  56.3013983  16.6470909  69.6888494  29.8164988  59.5235157   8.9209914
  29.5569277  59.8687744   8.0667955  30.7262301  59.8022318   9.0255922
  15.5060172  26.1978340  66.6074085  16.0200143  26.1699343  65.8004045
  16.0447216  26.7020297  67.2171783  71.1442804  73.1902504   9.0264070
  71.1658525  74.0320587   8.5712910  70.8023500  72.5756407   8.3771253
  69.8942184  16.1031389  28.7867427  69.6250010  15.1872301  28.8564968
  69.1402054  16.5993404  29.1053081  23.0941892  73.3957863  22.8166318
  23.2252336  74.2119026  23.2993507  23.7381458  73.4298754  22.1092510
  36.9842887  77.3020840   4.1991776  36.1393762  76.9303846   4.4525367
  37.6294994  76.7683363   4.6629158  60.2325630  75.7793951  30.6841421
  61.1574030  75.8190346  30.4405522  60.2137089  75.2237129  31.4633012
  79.7747564  12.6293373  20.6055880  79.3541145  11.9161987  21.0859275
  79.1458654  12.8615773  19.9223638  43.4202433  61.4428616  27.8463459
  44.0183878  62.1900797  27.8571630  43.1408596  61.3729000  26.9335032
  13.3144855   1.1627756   9.3962795  12.6543415   1.6549984   8.9082646
  13.8953876   1.8329948   9.7562659  57.8323698  67.9382849  23.5785103
  57.2054386  67.2446823  23.7836957  57.3867178  68.4786272  22.9260850
  19.9627244  59.3097687  70.0671625  20.1493859  59.2820454  69.1287518
  19.8093092  60.2360201  70.2535868  60.0682354  75.9142113  36.6493392
  59.7394657  76.7995787  36.4935517  60.9785795  76.0403967  36.9168949
  61.5760994  73.3259392  25.0012779  61.5910530  72.4781179  24.5571923
  61.8856001  73.9471149  24.3420458  39.5234704  64.8783302  11.4906156
  39.1039419  65.6614828  11.1343920  40.2075100  64.6635580  10.8564305
  43.8749647  50.8894920  19.6542037  43.5800123  50.4940176  18.8339365
  44.6260643  50.3587437  19.9195087   0.2344679  79.3482065  37.2874165
   0.5907800  80.2350616  37.3400331   0.2014779  79.1585827  36.3497686
  16.0167694  72.5303936  28.2202959  16.7212236  72.3883629  28.8525939
  15.3115129  71.9536448  28.5138941  45.7650661  23.2501411   9.7741747
  46.6263008  22.9159570   9.5235205  45.7051420  23.0770540  10.7136858
  52.2042847  73.1104422  33.8423967  52.4677563  72.5080156  34.5380211
  52.2241783  73.9745712  34.2536449  55.8009863  46.7590380   1.1590715
  55.2073431  46.0227299   1.3062622  55.2268553  47.4837732   0.9113584
  84.9962139   2.4697618  40.3627300  85.1303959   3.1605935  41.0115576
  85.7069492   2.5911343  39.7331619  54.6079111  74.8880816  22.8558588
  55.0501204  74.6237421  22.0491314  53.7692833  74.4272852  22.8313351
  72.9473448   8.1128806  25.0085688  72.5151873   7.4566025  24.4619703
  73.8195086   7.7531618  25.1703382  36.1930680  66.9854259  38.0721426
  36.9042945  66.4587545  38.4368396  36.6350412  67.6994514  37.6127291
  58.9761353  64.0565062  12.8682554  59.8182011  64.0823889  13.3226621
  58.3742046  63.6653948  13.5014534   2.2336188  25.7476664  20.1640344
   1.3088894  25.5011296  20.1821208   2.2275172  26.6869736  19.9799180
  67.0186901   7.6682103  16.0014701  66.2590456   7.7599835  16.5765774
  67.5613165   8.4319389  16.1977005  23.2884836  42.7522469  16.6830170
  23.8552237  42.5024319  15.9532034  23.7428689  42.4285364  17.4608183
  35.9260345  65.7692194  35.6157708  35.8185172  66.3160753  36.3939857
  35.0357199  65.5051613  35.3837252  67.7544832  49.1695023   6.9367766
  66.8278790  49.3695498   7.0695263  67.8983116  48.3621073   7.4304003
  83.3954430  10.5061412  10.5250514  83.6275196  11.2757492  10.0053668
  82.9617405  10.8625650  11.3003576  52.5984430  70.2992201  21.6456985
  52.5827599  71.2426043  21.4844060  52.2487450  70.2018166  22.5313950
  13.3595610  38.0377197  64.6781683  12.4355137  38.0965734  64.9208736
  13.7852168  37.6571703  65.4464340  14.0454090  18.0509818  68.8810301
  14.2830694  18.3701873  69.7515821  13.3997178  17.3638606  69.0459013
  50.8559132  54.8506498   3.8979071  51.1622381  55.0543070   3.0142099
  51.4191246  54.1327477   4.1871226  75.7504368   5.6064016  12.7575850
  76.1331224   4.8324120  13.1707740  75.5009365   6.1701477  13.4898221
  85.4692650   0.9230096  61.7992830  85.7566833   1.4932147  62.5123692
  85.3263664   0.0728242  62.2152090  38.7645507  59.6510649  28.4725714
  39.0254760  59.7721100  29.3855333  38.9616179  58.7329626  28.2868624
  60.2805328  68.4984589  20.2236533  60.7313156  68.5522890  19.3809605
  59.7070742  67.7366018  20.1402831  28.7314558  54.9672604   6.5480030
  29.3130326  55.3297901   7.2162640  28.3757830  54.1725063   6.9456196
  82.4889469   5.0363249  30.3322721  83.0985451   5.7723492  30.2784491
  83.0193424   4.3094271  30.6586742  38.5505819  60.9658480   8.7283987
  38.1567335  60.2099323   8.2928479  38.3274865  60.8529949   9.6523702
  69.3989754  64.5273018  20.1802492  68.4785795  64.2725277  20.1154232
  69.8314714  63.7662125  20.5674458  85.7298470  51.1481714  17.9029059
  85.2475166  50.6349468  17.2546828  85.4005241  50.8386421  18.7466896
  77.5823879  58.5210228  27.4957299  77.4427176  57.8737497  26.8045235
  76.7650747  58.5195351  27.9939556  52.9254770  62.3571730  15.6670439
  53.6125851  61.7531443  15.3854942  52.1322823  61.8220425  15.6936157
  53.4567070  71.7729568   8.1826115  53.7460852  70.8606625   8.1681502
  53.2408428  71.9702339   7.2711754  15.9877551  16.2185812  63.5989285
  16.6599464  16.7870486  63.2231188  16.4287901  15.7712376  64.3211508
  39.8313093  11.4662135  67.7094030  38.8759303  11.5240026  67.6975584
  40.0854874  11.5121818  66.7877150  17.9922938   4.0998420  22.9556918
  17.4301267   3.4048820  22.6133037  18.3190930   3.7558126  23.7870026
  33.5826802  46.2554121   3.0545667  34.1332316  46.5872812   3.7637827
  33.6209059  45.3034592   3.1470871  67.8202391   8.4432149  10.0052977
  67.7255583   7.8064615   9.2969108  67.1025896   8.2418519  10.6058526
  60.4149580  73.8242197   2.3090667  59.8656988  74.2862940   2.9423380
  59.7978640  73.4780884   1.6643770  63.0576134  60.0322676  36.6297507
  63.0094814  59.5859241  35.7843542  63.9808321  59.9785089  36.8767571
  30.5745459  71.2457180  20.6460190  29.6650410  71.4266729  20.4087734
  30.9760165  72.1103191  20.7327437  11.8254006  65.8198309  26.5349913
  11.2065423  66.3888216  26.0772824  11.4067590  65.6384754  27.3764682
   3.6381787  20.3549886  56.0809565   4.2944077  20.9640694  56.4195061
   3.7662512  19.5562077  56.5926027  44.6854305  69.3148327   3.8754827
  44.2275000  70.1514387   3.9568478  45.2465200  69.2726040   4.6498379
   5.9636569  -0.1650793  13.0251682   5.4537880   0.6447377  13.0036783
   6.7508042   0.0339619  12.5182033  85.9937763  18.0486166  18.1288755
  85.2985477  18.5834455  17.7456617  85.5465221  17.5007331  18.7738764
  43.5985756  78.3170891   6.1571854  43.2482386  79.1979885   6.0248518
  42.8640938  77.7353239   5.9614563  83.4033012  45.0389051  10.6510127
  82.5449085  44.9107742  10.2473044  83.9323711  45.4456997   9.9648416
  32.3373795  79.9922562  21.5159798  32.2617197  79.7698545  22.4439049
  33.1740499  80.4521561  21.4473557  28.4081244  72.4151468  19.3919075
  27.7353549  71.7801476  19.6376491  27.9730964  73.2647705  19.4634414
  70.3935242  47.2898483   9.2516589  70.6671667  47.8021526   8.4908092
  70.9842491  47.5669384   9.9520141   4.7249526  34.5360494  32.8607798
   5.0226110  35.2027678  32.2418141   5.2138329  34.7188354  33.6631632
  45.9596300  73.2598639  16.4882064  46.6683722  73.4016132  15.8606553
  45.4825878  72.5046730  16.1441863  48.1156445   2.4814276  12.1477735
  47.2318316   2.8446323  12.0912898  48.6871529   3.2479501  12.1931100
  20.0249863  53.0477095   9.7491181  20.2929115  52.4156284  10.4161417
  19.1757131  53.3694983  10.0514722  81.2886047   4.5998490  44.2588472
  81.9231701   4.8828915  44.9172211  81.1571598   3.6687258  44.4376278
  27.2004986  72.6130390  16.5167010  26.5489650  71.9122839  16.4906895
  27.7716756  72.3819542  17.2492230  43.5580444  63.1482983  10.3281462
  44.1477728  63.4252739  11.0293853  43.6280012  63.8392782   9.6694487
  61.3850069  14.0556049  17.4908173  61.8637705  14.2354524  18.2999372
  60.8544588  13.2848990  17.6927102  49.5440054  47.9766273   9.7630733
  50.4197931  48.0493021   9.3836784  49.2747831  48.8818073   9.9192780
  40.3063679  59.0318584  11.5219045  40.3442717  58.1785107  11.0899436
  40.7284689  59.6309566  10.9061563  69.5460749  32.3927331  19.7267020
  69.4243860  33.0887198  19.0809262  68.8891268  31.7354918  19.4971728
  72.3326111   4.0751767  14.2174423  72.8546000   3.5420492  13.6178315
  72.3702812   3.6051902  15.0504637  41.4078808  53.7444830  17.0365334
  41.0104656  54.4691944  17.5193250  42.3494864  53.9071560  17.0925713
   3.8395339  21.2088180  30.5058980   3.2411119  21.9500065  30.4122734
   3.3237001  20.4489565  30.2361631  74.3505478   3.5479429  11.2668931
  73.7199306   3.6134648  10.5497742  74.7249603   4.4260386  11.3375711
  60.4332924  46.4788198  26.1745119  60.5462360  45.5284119  26.1605620
  61.0597897  46.7848682  26.8303084  78.1106281  13.7020397  30.1565742
  77.3449850  13.2624340  30.5263996  77.8230286  14.6036494  30.0129795
  77.1061182  70.4133654  10.9920502  76.5930605  70.9697151  11.5781260
  76.5409946  70.2821732  10.2306986  29.3921876  32.3152924  68.1380177
  30.0244546  31.6155291  67.9743004  29.2991853  32.7564383  67.2936392
  19.4707298  46.5420580  63.2086182  18.5366881  46.6950321  63.0658054
  19.6326470  45.6781435  62.8295851  41.5159130  79.2019606  28.9237952
  41.6076756  80.0701427  29.3163061  40.5786848  79.0141106  28.9743257
  42.3840618  73.6447048  21.6529346  42.0287657  73.4320116  22.5159264
  41.6429710  74.0149498  21.1734152  62.3268080  67.8000736  18.4742570
  63.0692577  68.0759001  17.9367399  61.7042875  67.4276114  17.8497839
  36.7365193  58.6654282  33.7339997  37.4524069  58.2789755  34.2383742
  37.0330238  59.5546103  33.5399008  77.0067835   0.7031863  25.4992390
  77.1335888   1.6485503  25.5794787  76.4407015   0.4740456  26.2363100
  23.1347609  62.0237303  66.8211985  22.3868394  61.4740705  66.5872717
  23.8955808  61.4542580  66.7068148  61.3828802  79.7328758  10.9865487
  60.9216166  79.8538589  11.8165052  62.0450830  80.4239941  10.9776056
  62.0615578   6.1126834  17.1745741  61.5705013   5.2932638  17.1141696
  61.3927984   6.7828381  17.3156083  75.0072050  65.7023191  34.6692753
  75.5939960  65.9098530  35.3964877  75.5759621  65.3092957  34.0072465
  37.0473981  64.3426991  20.8097720  36.4070916  64.0583706  21.4619970
  36.7223096  65.1912928  20.5090499  62.0053816  19.2385161  35.5174208
  62.5718260  19.8536777  35.0516438  61.1190653  19.5659101  35.3641510
  84.2561531   8.1792837  49.1635275  84.7382450   8.8228595  48.6442709
  84.3395329   7.3629558  48.6706877   4.6524328  23.7260270  62.9788780
   3.7193412  23.7032580  62.7666235   4.9915710  22.8905106  62.6577425
  12.7499652   8.5955274  16.7281735  13.0994546   8.5778552  17.6191151
  12.9265463   7.7198893  16.3842130  61.9746113  66.6146851  15.1554632
  62.9046583  66.3909292  15.1211452  61.8274641  67.1475220  14.3740141
  18.6888635   3.6757934  25.5038238  18.6929405   4.4695815  26.0387206
  19.5479369   3.2812855  25.6541204  21.4619875  34.6550703  69.3804073
  21.0843563  35.4430079  68.9895344  21.5493011  34.8669767  70.3097630
  34.2780113  59.3815041  10.3793299  35.0075626  59.2726088  10.9893525
  33.5587955  59.7055674  10.9214950  34.8237252  75.9556198   4.9778095
  33.9286757  75.6246471   4.9031219  35.3232574  75.2182674   5.3285432
  71.5579796  81.0309601  19.0662539  72.1427679  80.4831314  18.5426748
  71.7270899  80.7659054  19.9703431  65.9023857  49.5409393  19.4311452
  66.6105938  49.4316816  20.0657606  65.4750586  50.3582048  19.6874738
  13.1972551  71.2393618  58.4987783  12.9722440  71.4725780  57.5981092
  12.4388456  70.7489061  58.8157988  47.2204876  57.6461792  18.2882845
  46.8840361  56.8452072  17.8864408  48.0977631  57.7489567  17.9194283
  17.6868653  40.9431791  68.3933735  16.8340325  41.3095999  68.1596231
  18.2272053  41.0785389  67.6149559  37.9560852  78.1357050  10.2030802
  38.0468321  79.0791178  10.3371215  38.7770247  77.8728533   9.7869080
  58.2471037  54.3559504  21.5318704  59.0856934  54.7394228  21.7886662
  58.3804321  54.0721607  20.6274819  74.8101187  13.9884627  18.0331898
  74.3711615  14.7954738  17.7643335  74.1670322  13.2992208  17.8670096
  17.6118565  78.2955742  12.7552152  17.6422167  79.2237473  12.9871833
  17.5784326  77.8395081  13.5961175  17.1905351   9.9871016   5.3889138
  17.0525014  10.6380236   4.7008157  17.3002183  10.5027342   6.1878657
  75.3398466  55.1996994  63.1973553  75.4058599  54.9386024  62.2788239
  76.1247969  55.7245779  63.3541632  37.8372836  74.4582176   8.2509565
  37.6951194  73.5303593   8.4383118  38.6300373  74.6822596   8.7383777
  55.5437756  14.1807532  25.5908966  56.1108351  14.6132874  24.9524713
  55.9830904  13.3512020  25.7781863   3.4879288  16.7521858  40.0682449
   3.4040648  17.6608646  39.7792745   3.4395158  16.2389374  39.2617321
  76.8940258  73.9686918  10.1043034  77.3625135  74.3617535   9.3679237
  77.3369837  73.1329966  10.2513742  22.5059628  51.8795776  11.9789803
  23.1461287  51.5393782  12.6040268  21.8573856  51.1805153  11.8959665
  16.1228859  -0.0539329   4.1429320  15.1887882  -0.0661330   3.9342636
  16.1823428   0.4648959   4.9451250  64.6250105  60.8364153  15.8786225
  65.0782299  59.9977875  15.9653914  63.7129545  60.5994987  15.7105267
  57.8101110  73.2770395  32.2597528  57.2699642  73.9511108  32.6721835
  57.3270464  72.4629593  32.4017358  66.2872553  13.2819676  12.4415326
  65.5409336  13.4169292  11.8575656  66.5490818  12.3738897  12.2896349
  48.5185623  64.6253777  25.7488489  48.8248348  65.4906893  26.0202742
  47.6353884  64.7783899  25.4129553  75.1312828  57.6485491  50.9582710
  75.4554605  56.8587160  51.3910627  74.2271757  57.4392223  50.7237387
  80.2964973  16.9590640  32.9614425  80.5281734  17.5924230  32.2821665
  80.7425976  17.2761440  33.7467408  51.5080214  75.6855822  35.7418299
  51.8261385  75.0930262  36.4229417  51.7861176  76.5545416  36.0313201
  49.1141462  42.8135920  15.2779877  48.3766365  43.1373119  14.7607648
  49.8165703  43.4426689  15.1133752  76.9861412   5.4689777   4.2773479
  76.0292530   5.4817176   4.2564607  77.2489214   6.0748941   3.5844964
  76.3506031  51.9176960  19.4843578  75.8730936  51.2963724  18.9346504
  76.4827919  51.4536762  20.3110623  67.8280306  55.3556252  23.6030316
  68.5331440  55.1830482  22.9791164  67.0435524  55.0056505  23.1807232
  47.3968887  62.0301151   6.5646982  46.6197538  61.5015411   6.3832867
  47.5882578  61.8655872   7.4880296  19.5976961  70.7570934   4.7585160
  20.1943254  71.4540911   5.0313795  19.7975349  70.6196022   3.8325608
  71.8736506   6.6705507   8.9266014  72.0006752   5.7219607   8.9100426
  71.1987591   6.8102682   9.5908552  27.4842262  64.0389395  27.5984812
  28.4288478  63.9610052  27.4648762  27.2078991  63.1639910  27.8711319
  60.8447266  78.0061674  32.2979641  60.1899672  78.4961605  32.7953887
  60.3534985  77.2893715  31.8965530   2.6329806   1.3687935   8.2322329
   2.3148289   0.4847009   8.0494994   2.1448030   1.6433485   9.0084636
  15.5113661  49.8998022  56.2560749  15.7795370  49.0755033  56.6620874
  16.2628996  50.1600838  55.7234573  39.5772004  65.2470922  24.0072203
  39.7330904  65.7293320  24.8192406  38.8115096  64.7040319  24.1943932
  77.7277565   0.6797367  33.2743287  76.9421864   0.2952798  33.6633039
  77.4149418   1.1102581  32.4786973  21.0847116  49.8979425  51.2359524
  21.1737680  50.4201221  50.4386902  21.9444370  49.9498844  51.6535711
  24.0235518  66.9509426   0.1359660  23.7928866  66.4785924  -0.6639760
  24.6307276  66.3679638   0.5917174  48.5713625  37.5774980   5.6854337
  48.2198191  38.1860328   5.0355601  48.8562632  36.8197989   5.1745963
  33.3016539  66.1681986  33.4871554  32.5618672  66.5907049  33.0507636
  32.9106474  65.7080650  34.2298651  51.7527342   0.4659256  25.0753212
  52.3733664  -0.2320219  24.8657513  52.2918844   1.1599126  25.4547048
  84.9940109  70.9591675  14.0834987  85.1960373  70.7944679  15.0045276
  84.9602413  70.0888920  13.6863649  30.7306957  68.8632107  37.4255872
  30.3644872  69.2455912  38.2230258  30.4781580  69.4710779  36.7306399
  19.2903852  26.8752789  67.0744848  18.9351559  26.8143153  66.1877298
  18.9871430  26.0782766  67.5092936  79.0211391  75.0314188  27.7096581
  79.7201204  74.7177410  28.2834744  79.3398666  75.8722258  27.3815036
  42.9461193  66.2933636  18.5058200  42.1009159  66.6062498  18.8282597
  43.5734987  66.9548702  18.7974298  83.4299374  44.8418427  55.7318115
  84.1875839  45.4258394  55.6978846  83.2120419  44.6786499  54.8141384
  66.5577316  64.8542500  13.0135632  65.9445000  65.3676605  13.5394812
  65.9997845  64.2955875  12.4724352  38.9068365  74.3216896   1.7493881
  39.1169000  74.6304083   0.8680270  37.9619837  74.4520330   1.8299682
  28.0920172  33.5677671  58.6652184  27.9278183  34.4915128  58.8548613
  29.0239954  33.5293555  58.4503412  33.6749887  77.6885462  12.4103832
  34.1205311  77.8519440  11.5791047  33.5178065  78.5602283  12.7732718
  40.5065727  69.0212536  25.0405526  39.7690368  69.4656610  25.4586196
  40.3866720  68.0978346  25.2622485  82.3165512  13.4816849  41.9639730
  82.4080181  14.1963542  42.5941420  81.4082813  13.1944823  42.0577097
   5.1463586  12.1821773   4.9305117   5.0463879  12.4612904   5.8406401
   5.9574473  12.5991547   4.6398279  41.3379097  78.9828157  16.9599533
  41.7407656  78.4142542  16.3036966  42.0770979  79.4084835  17.3942828
  79.0472698  -0.0487712   9.4572848  79.9110031   0.3582124   9.3897396
  78.4663010   0.6646970   9.7212350  54.0675735  74.6196938  15.9855437
  53.1177378  74.7086191  15.9071958  54.4038439  75.5037260  15.8384430
  60.0484991  64.1793442  19.2307746  60.4565859  64.4001722  18.3935559
  60.7846880  64.0186453  19.8210609   2.9211837  30.4883981  28.2841921
   3.7910697  30.8785558  28.1987166   2.5433090  30.5511093  27.4069738
  85.9557343  77.9102898  20.1774549  86.0995579  77.2002411  19.5518517
  85.0209427  78.1043911  20.1087117  80.9900284  19.9375260  36.9541407
  80.8522797  19.7056913  37.8725696  81.3733768  19.1521096  36.5637541
  59.7884989   1.7603093  37.9652834  60.3277731   1.5116729  38.7160158
  60.1279211   1.2336343  37.2416544   0.8295888   0.4471085  27.1043754
   0.3999453   0.3684424  26.2526417   0.5408711  -0.3252504  27.5905204
   0.5895658   1.2609914  22.9923582   1.3266243   0.8172461  23.4119606
  -0.1861409   0.8495478  23.3734417  81.2677479   1.0539076  19.5458806
  81.8385124   1.5101127  20.1642156  81.1020184   1.6952509  18.8549066
  73.0660391  56.0191345  64.3296671  72.6916313  55.3071404  63.8109064
  73.7664366  56.3724518  63.7811804  77.9476261  27.7410460  42.8190088
  77.3699141  27.1346474  43.2824326  78.5162020  27.1768999  42.2948980
  76.8946600  63.2668781  23.9366031  76.6629887  62.6845360  24.6600914
  77.4913836  63.9063358  24.3255043  81.9342232  24.8940110   9.5345008
  82.3310184  25.6951356   9.8765278  81.1681938  25.1957130   9.0462291
  60.2762699  61.3326693  28.2915163  60.6879568  62.0995474  27.8932190
  60.7544088  60.5877876  27.9271412   2.9635456   0.7984808  44.4278669
   3.3938038   0.2327155  43.7867594   2.7198634   0.2093340  45.1418400
  60.0815868  76.2038040  12.3064828  60.7677078  76.8478775  12.4815226
  60.1300383  75.5957603  13.0441558  53.9553595  77.8283691  38.7582326
  53.3175611  78.3470917  39.2485118  54.7643375  77.9026079  39.2644644
  59.7561121  65.4687929  25.1146746  59.9267340  65.5795383  24.1793394
  59.7960186  66.3558578  25.4720974  65.6782675  72.2938538  29.4892812
  64.9427032  72.7978659  29.8373413  66.2638950  72.1770525  30.2373648
  59.9378729   7.8750789  18.1051970  60.3151035   8.7379211  17.9336357
  60.2034330   7.6715916  19.0020251  33.8459873  56.8437529  59.3928432
  34.7591615  56.9768286  59.1386080  33.6089730  56.0023403  59.0028715
  51.0182667  78.1012011  11.9378436  51.5344763  78.8965178  11.8065596
  50.9333420  78.0249357  12.8882134  30.1238084  57.8475952  61.1097908
  30.1827383  56.9002819  61.2337208  29.1891909  58.0410051  61.1826944
  78.0052137  14.2937064  22.9157615  78.2400131  14.3503988  23.8419843
  77.8166151  13.3662200  22.7728200  71.7769384  72.8176308  16.8857431
  70.9616613  73.3009434  17.0197892  71.5666866  72.1770716  16.2062502
   3.8205871   3.1342727  48.3728552   4.2686066   3.7753788  47.8210449
   3.5059157   3.6409512  49.1215134   5.8225620   4.5680755  27.4935722
   6.7008466   4.4362944  27.8506184   5.6444365   3.7704706  26.9952464
  18.8104033  22.2335815  12.5635481  18.0015814  22.7233624  12.7123928
  18.9289010  21.7186284  13.3616793  74.7463226  19.2895114  19.7895455
  74.7437763  18.5934711  20.4466248  75.1568127  18.8923001  19.0214622
  31.1110091  11.1618757  22.0297623  30.7536483  11.7405105  22.7033401
  30.5370235  11.2902629  21.2745881  75.7783031   8.9251333   8.7081587
  76.2668467   9.1177571   9.5084417  75.3584957   8.0824065   8.8808006
  58.7424850  26.8918538  18.0130994  58.2496214  27.3221707  18.7117755
  58.0963516  26.7382288  17.3237884  15.5060589   0.8958779  14.4274867
  15.9087873   0.9515344  15.2940571  16.1767185   1.2267177  13.8299966
  16.3876462   5.7120514  19.7320282  16.0346830   6.3658798  20.3354836
  17.2868884   5.5727637  20.0290012  11.0448849  15.4508460  12.8476155
  11.3808310  16.2316155  13.2878101  10.0997233  15.5930591  12.7958822
  16.0735357  73.0540371  36.8592620  16.0768139  73.8668013  36.3536596
  16.9177771  73.0491543  37.3103333  83.1363678   3.8053459  27.1489453
  82.9678345   3.0026582  26.6554689  83.9653015   3.6406225  27.5983572
  56.4893770   5.1868534   3.2593220  56.1336994   5.8247232   2.6405770
  55.8815908   4.4485253   3.2180786  75.4545975  13.7395704  43.6139202
  76.3345051  13.6915052  43.2401800  74.8806620  13.8709569  42.8592205
  48.8649321  77.9024410   3.8223308  48.1365871  78.3092690   4.2916223
  48.5196590  77.7315521   2.9460800  83.2658005   2.2191636  21.4405298
  82.6943874   2.9870933  21.4375901  84.1519356   2.5798690  21.4107299
  45.1999426  65.3244257  34.9099970  44.9867916  66.2107611  34.6180940
  44.3563032  64.9427557  35.1525378  54.4486332  52.0705462  63.1770563
  53.8713598  52.8322935  63.1248331  54.2625856  51.6873598  64.0342522
  78.6069489  17.3705006   9.1779536  78.7407398  16.6685629   9.8148340
  78.1782818  18.0668545   9.6755153   7.3124522  29.0256095   0.1236802
   6.9574958  28.1461954  -0.0061931   6.7229348  29.4302750   0.7600358
  56.3151932  39.1779757  67.6478720  57.2454453  39.0123200  67.8009129
  55.9639883  39.3889403  68.5129642  39.8030639  23.6576748   7.8370070
  38.9525056  24.0724397   7.6929563  40.3125191  24.3145037   8.3116251
  44.6025324  22.3210502  15.4589903  44.6796465  21.4828420  15.0032556
  44.9329519  22.1458936  16.3401127  83.8994408  14.2482471   1.2351979
  83.1933880  13.8128567   1.7128587  83.6553192  15.1737893   1.2380216
   6.5350628  23.8980532  24.7222328   6.2390780  24.5810294  24.1204286
   7.4899435  23.9211726  24.6597862  37.3268485  34.9294329  15.2736545
  37.9509091  34.3622375  14.8208070  36.9955826  35.5136776  14.5916343
  19.9812043  18.8425767  15.9761083  19.9706781  17.8868270  15.9244967
  19.5780993  19.0412533  16.8212509  23.5713720  49.7410679   7.2664154
  22.8021431  49.4996452   6.7504358  23.2325840  50.3310251   7.9397690
  35.2550292   9.4175410  24.8635101  34.4144917   9.0126044  24.6496081
  35.8192372   8.6837554  25.1073527  58.9228392  70.2965546  65.9148073
  58.4243202  69.8794889  65.2121210  58.4883690  71.1387825  66.0494137
   4.9289936  72.0365429  65.4910040   4.5099050  71.1823368  65.5955029
   5.0483054  72.3558235  66.3854599  57.0723915  58.9982796  66.5627003
  57.3446465  59.6310234  67.2273350  56.1199808  59.0859222  66.5244579
  11.7459345   2.7432841  49.1103601  10.8144569   2.8615105  48.9243412
  11.7664111   2.2994456  49.9581909  37.0878172  59.3989038  54.0068579
  36.8332934  59.4937515  54.9247074  36.7254305  60.1733398  53.5765553
  28.0380440  23.4901428   9.1695702  28.7315106  23.8688493   8.6292756
  27.9226422  22.6045775   8.8250625  12.4451256  32.5955248  19.0255523
  12.7476859  33.3695626  18.5506260  12.2207379  32.9217529  19.8970199
  70.3252363  51.6882372  42.5540686  69.6785164  51.5894604  43.2528019
  71.0226774  51.0745525  42.7847290  53.0858135  63.4883118  54.6552229
  53.8619852  63.7454176  54.1575432  52.4068165  64.1014433  54.3736839
  12.9459155  20.1976013   4.3658939  13.8593256  20.3959537   4.1595668
  12.7415740  20.7599568   5.1130432  15.1600027  53.1353903  16.0321891
  15.7351804  53.8982010  15.9728026  14.7808683  53.1890202  16.9094646
  36.6683173  17.0644701  17.1164525  36.9691896  17.1154463  16.2091994
  37.4471879  16.8141735  17.6133847  18.5791028  31.6227055  19.6084058
  19.0355515  30.8501720  19.9416935  17.7560234  31.6437697  20.0965929
  32.4090791  51.4164448  11.8102920  32.5853181  52.2599554  11.3935637
  31.4606094  51.3081741  11.7401624  40.3370476  21.6014075  16.3700056
  39.4861031  21.3173032  16.7037857  40.9737778  21.1757731  16.9441485
  36.2469697  35.3832889   1.4607249  36.0187507  36.0918975   0.8590430
  36.9112110  34.8767948   0.9933059  12.6679540  14.0356266  14.1675079
  12.0150614  13.4660530  14.5743871  12.1629333  14.5963991  13.5786772
  37.5702810  35.4404283  20.5481672  38.4894514  35.2057433  20.4205823
  37.2089672  35.4834938  19.6628249  15.8514774  37.9440737  25.0581503
  15.2349925  37.3994708  24.5686746  15.3223765  38.3433008  25.7487297
  35.5096722  11.9353867  23.9216328  35.4023409  11.0158348  24.1648126
  34.9361706  12.0513058  23.1640768  28.5663056  37.5035882  17.9402208
  28.3523893  38.4344888  17.8778088  27.7299023  37.0777011  18.1280541
  28.6084723  32.1366215   4.6932405  29.0638947  31.3137937   4.5149750
  29.1544056  32.8065705   4.2817089  14.9901891  34.5573282  22.3224807
  14.6134031  33.7739992  22.7233052  15.8610952  34.6308208  22.7128053
  40.7314825  26.5383577   9.0555972  40.1559496  27.3026252   9.0258306
  40.3278351  25.9596062   9.7023934  27.6018310  24.8567152  17.3396313
  27.5537491  24.6387124  18.2704341  26.8252397  24.4479489  16.9574726
  40.2734566  10.8002496  29.8709440  40.5080700  10.4847717  28.9982104
  39.4253445  10.3951287  30.0520873  28.0073452  62.8080988  66.8825483
  28.8274145  63.2954884  66.8039846  27.7029371  62.9931164  67.7709961
  64.5730925  78.3256626  69.8557854  65.3619242  78.2326794  69.3216228
  64.6985149  79.1494656  70.3267956  27.9805541  20.5130863  26.3439655
  27.4868035  20.4675412  27.1627235  27.3710704  20.9044290  25.7181764
  77.7992630  74.7963285  70.0081348  78.5990095  74.5209074  70.4562235
  78.0667162  74.9247360  69.0980721  19.4555998  31.7449164  15.2771235
  19.5958817  32.3907328  14.5846820  18.6269379  32.0028377  15.6808889
  28.8538861  43.4051657  19.6272624  28.2468653  43.8299656  20.2333212
  29.5780039  44.0250301  19.5397735  48.4671831  31.9623685   2.5265548
  48.6800003  32.0610714   3.4545621  47.8376484  32.6613522   2.3495343
  29.0923810  23.9776182  11.9261193  28.8961411  24.5076394  12.6986480
  28.8135695  24.5186377  11.1873412  49.8297501  40.0299311  15.0707209
  50.7681561  40.1907444  14.9718964  49.4303179  40.8976650  15.0097430
   8.0906439  15.4467082  69.6471930   8.3941305  15.3155780  68.7488985
   8.7896931  15.0843370  70.1914835   8.7638646  45.2583599  18.4343660
   9.0021479  46.1143780  18.0784392   8.4101272  44.7778082  17.6859200
  12.5431430  36.8448091   1.8699393  13.0373764  36.8385005   1.0502289
  12.3633659  37.7705312   2.0341051  32.7341604  12.6360571   6.0668099
  33.5383058  12.3529756   5.6315553  33.0237198  12.9531085   6.9223011
  31.2398720  47.4542093   3.6006129  31.4008307  48.3876610   3.7384245
  32.0598197  47.1210384   3.2360399  19.1695249  42.9204369  10.3953660
  19.0819705  43.2304144  11.2967432  18.3105981  42.5550985  10.1832283
  25.0672436   1.0381048  62.4902439  24.5142317   1.7852238  62.7187729
  25.7855749   1.0696775  63.1220961   4.0415496  79.1856050  61.9072914
   4.8038486  79.3829203  62.4515295   4.0858752  78.2397985  61.7668629
  26.8908596  38.9108586  -0.2226654  26.7811465  38.5158157   0.6422829
  26.5232325  39.7900653  -0.1327973  48.8213778  34.8087549  14.8758042
  49.0960741  35.4756308  14.2464781  48.1357908  34.3188524  14.4217110
  18.4807861  73.0200386  17.3251677  19.4048119  72.7704430  17.3356044
  18.1991851  72.9341412  18.2359672  26.1194301  36.9698215   9.7923374
  25.8125734  37.8727698   9.8745090  25.3739023  36.4961219   9.4235158
  26.5430689  38.4804678  20.2882147  25.8875799  37.9234004  20.7080245
  26.3622212  38.3991122  19.3517804  57.1289921  38.0727506  12.5751948
  56.2921000  38.3668804  12.9348242  57.2652817  38.6236024  11.8043375
  41.1240292  47.8548670   4.2485839  41.3624477  48.4228468   3.5159254
  40.2518320  47.5296545   4.0255612  44.5360136  35.2077579   1.0120058
  43.6943531  35.3819370   1.4333218  44.4042206  34.3821669   0.5458919
  72.6343203  58.2263041  65.9117126  72.7118397  57.3540163  65.5252695
  71.7067528  58.4456539  65.8237791  56.8348360  27.1040893  20.4085183
  56.6483259  27.8054833  21.0326123  56.1534500  27.1893859  19.7416806
  43.6331749  36.5368557   9.3931770  43.0640745  37.0058703  10.0034106
  43.0304813  36.0734487   8.8115847  31.1151552  20.2819586  16.9641924
  31.5453172  20.0489616  17.7869356  30.3528810  20.7963896  17.2297668
  25.6305385  17.2447646   0.9706677  25.6422067  16.7690814   0.1401131
  24.7465038  17.6075268   1.0265180  32.5907969  29.2750907   2.7677050
  32.6344633  28.8951135   3.6451682  33.1034923  30.0810099   2.8299114
  25.7639647  52.9284334  11.9674253  25.2908421  53.4676361  12.6011825
  26.4232516  52.4697065  12.4881411  83.1384087  10.4386604  67.8281498
  83.3264923  11.3483882  67.5973892  83.1394768  10.4292214  68.7853050
  14.7523522  44.9071264  22.0943689  15.0006914  44.1208553  22.5805187
  14.4366670  44.5785236  21.2525868  65.2819872  61.4214611  62.4321270
  64.8152018  61.6565704  63.2340384  64.8035526  60.6667423  62.0890141
  76.3059092  69.7054386  60.9473848  76.0568857  70.5295610  61.3657665
  75.6168795  69.5465803  60.3022194  65.3512383  62.2182226  69.5886278
  66.1278725  62.0701504  70.1282072  64.8578072  61.4002657  69.6494913
  81.6628933  80.9950256  31.4227581  82.4435711  81.5488911  31.4245415
  81.7872334  80.4082394  30.6768012  42.1076632  39.9643230   0.8077276
  41.8299580  39.1795182   1.2801625  41.2902689  40.3934431   0.5548327
  32.1051955  23.3637476  10.7005870  31.7926717  24.2458129  10.4992902
  31.4176607  22.9852939  11.2485850  16.2075174   6.7588937  67.6410818
  16.7795169   6.1882061  68.1542730  15.8396208   7.3677784  68.2815027
  64.7703791  64.7641468  69.3592596  63.9306545  64.7857761  68.9003181
  64.9174166  63.8369370  69.5460701  42.6765251  44.8250866   3.9007443
  42.1677589  44.0362787   4.0882733  42.3460817  45.1277781   3.0549207
  29.3719006  42.6056719   8.5093528  29.5047808  42.5478077   7.5631887
  29.4275641  41.7002439   8.8148481  54.4474411  74.4480753  45.2535391
  55.1586628  75.0886869  45.2501678  54.7392082  73.7694740  45.8623075
  31.3360405  23.4381938   5.5988997  31.9326138  24.0137744   5.1203239
  31.4286304  22.5874162   5.1701385  14.3952465   9.8237234  64.6507168
  15.1126301   9.2308378  64.8745012  14.8291206  10.6295574  64.3703270
  28.7291002  33.2721901   9.9864954  28.5645103  32.9027295  10.8540440
  29.2362165  34.0660167  10.1565063  49.8847294  18.3702087   1.9588374
  50.8355141  18.3504868   1.8499547  49.6212530  17.4504280   1.9302806
  29.6056080  72.9556894  47.4078894  29.6909952  73.8983870  47.2655487
  29.6225500  72.8546572  48.3595896  64.0649128  54.6460581   5.3679699
  64.7721815  54.9946690   4.8253214  63.4991264  55.3994131   5.5370063
  60.3452396  53.0871677  58.5393095  60.7034349  52.2116709  58.6857176
  60.9790230  53.5116339  57.9610586  42.4358559  40.0474834   8.4562802
  43.2637835  40.0192928   8.9358419  41.7758322  39.7978282   9.1030198
   9.4129997  75.8377361  61.8051577   8.7330109  75.2855968  61.4191675
  10.0098467  76.0244989  61.0805035   0.2771446   5.9444147  68.5133696
   0.3179504   5.8332598  69.4632149   1.1155492   6.3446093  68.2828188
   4.9562311  15.5009174  67.1255636   4.4941604  14.8872173  67.6966143
   5.0450814  15.0343144  66.2945318  26.5004778  21.3379478   7.2700715
  26.5075421  20.4771781   7.6887089  27.1663666  21.2766623   6.5851867
  48.8023758  35.3769851   4.0916753  48.2843781  35.0447106   3.3585274
  48.4209156  34.9586415   4.8634973  17.9473019  35.3483868   3.0647179
  17.2639120  36.0136938   3.1458101  18.1550217  35.1071286   3.9674246
   9.0567827   7.2970974  69.7128105   8.1364554   7.0345950  69.6948624
   9.5416522   6.4766133  69.6237087  71.1228609  67.0170736  68.6887503
  72.0477200  67.2457695  68.7812757  71.0107422  66.8463755  67.7535915
  45.2586889  39.8606300   6.6837436  45.3434753  39.4551754   5.8208132
  45.6340361  39.2196465   7.2874713  72.3273945  70.5393171  50.1054716
  72.3598099  69.8980141  49.3956041  73.2157040  70.8931637  50.1493359
   7.3128090  81.1209355  64.6405697   6.9862328  80.3047349  64.2618895
   6.6898070  81.7864802  64.3487597  55.5201578  72.8860331  64.0602970
  55.6480932  72.0862675  64.5704317  55.9730959  72.7180529  63.2339382
   2.9468593  67.3013687  61.9609451   3.3020547  67.0123911  61.1203766
   3.3058622  68.1802273  62.0832491   6.9826221  73.4734154  64.6781969
   6.4619964  74.0561724  64.1254139   6.3520384  72.8378534  65.0168085
  61.2120342  28.3755040  22.8561258  61.1451149  29.3276691  22.7844667
  60.4026127  28.1107283  23.2931185  52.9802179  37.4327469  20.2230406
  52.4592781  36.7684603  19.7718513  53.8333654  37.4029136  19.7900474
  60.1473522  77.7169085  50.6122828  59.3108559  77.8862858  51.0456610
  59.9599457  77.0059061  49.9994278  18.4305263  44.1012049  24.4412708
  17.8684580  43.3838177  24.1485786  18.0469000  44.8832512  24.0444541
  70.8141947  36.3123536   1.9889335  71.2205315  36.7558527   2.7335346
  70.1163101  36.9046903   1.7090683  29.3646431  16.1476815  11.1498857
  29.4571686  15.4528248  11.8016875  29.9075437  16.8622565  11.4828610
  37.3062754  27.0848918  15.4411638  37.4400306  27.2778296  16.3691282
  37.6380277  26.1937332  15.3315747  36.8626595  50.2462721  10.0151145
  37.4283433  50.3144503  10.7842612  36.6019320  49.3255949   9.9904150
  28.4927869  44.5835876  14.1733956  28.5806012  43.9107609  13.4982479
  29.1388869  44.3425274  14.8372328  23.9007854  24.6336389  18.5143149
  23.0004549  24.4174194  18.7569726  24.4350529  23.9873385  18.9759254
  33.3999848  47.1853828  16.2960255  32.5434637  46.9633818  16.6611528
  33.5931516  46.4721298  15.6875944  33.1258988  67.4498463   8.4447908
  33.1850934  68.3234453   8.0580759  32.8104639  67.6030493   9.3354428
  12.5207806   6.0918820   3.1670141  12.4946773   6.3743681   4.0812090
  11.6085505   5.9002829   2.9493931  43.0789757  48.6903715  13.7752974
  43.9613438  48.5330153  13.4392917  42.9660702  48.0380154  14.4666147
   0.7637563  76.3309383  66.1036777   0.0755244  76.3640690  66.7681122
   1.5063997  75.9222078  66.5482569  25.8987451  29.3135715  14.1831744
  26.0369897  28.7683082  13.4087014  26.5080881  28.9645815  14.8336673
  12.5958586  44.0857792   3.4745437  12.5700438  43.1643772   3.7325838
  12.6963007  44.0652609   2.5228491  31.7137003  40.8415270  10.5581677
  31.0057759  40.1986742  10.6007838  32.2448540  40.5637693   9.8118711
   7.8934300  79.0551472  58.9665174   7.6307893  79.0160608  58.0468845
   7.8264970  78.1509352  59.2733622  68.3004808  18.3780098  12.0394063
  67.9560375  18.7639785  12.8447771  67.9756069  17.4776614  12.0472860
  45.2502298  68.5087204   6.4714706  44.5860529  67.9786825   6.0308337
  44.7521400  69.1902781   6.9227105  66.0047865  59.2170095  56.2651682
  65.7561874  59.6197557  55.4331684  66.9618225  59.2077541  56.2502909
  30.3227806  15.9592712  33.6272049  30.9947824  16.0744154  32.9553509
  30.7499146  16.2257040  34.4413304  13.2428670  32.5109649  10.2758312
  13.0734253  32.1053076   9.4255584  14.0188420  32.0585823  10.6066549
  62.8759384  43.5373974   4.3508309  63.0030966  44.4853306   4.3894508
  62.6237965  43.3663368   3.4434211  38.8098717  30.7202053  15.1841843
  39.7475529  30.7838535  15.3656685  38.5933447  31.5454602  14.7502434
  50.4486942  41.4014816  12.4077642  49.5811558  40.9982538  12.3758531
  50.3831434  42.1572733  11.8240571  38.6426473  45.4214859   0.9312701
  38.9160419  46.1557293   1.4811569  37.6864505  45.4653025   0.9312461
  59.5604515  62.1362019   0.4755677  59.7267008  61.2063742   0.3206277
  58.8013029  62.1499062   1.0584341  17.6851094  53.8128519  13.7002170
  17.4444270  52.8910875  13.6071599  18.4906924  53.7990522  14.2170143
  16.2824774  39.2288709   9.0416914  15.8768559  39.7553802   8.3528584
  16.9610953  38.7264180   8.5908598  13.5845792  26.6846943  23.6861300
  13.0162120  26.6093755  22.9196334  13.0389380  27.1093035  24.3481088
   5.3316975  31.5344954  57.3502398   4.6903980  31.7415762  58.0300045
   5.4103023  30.5809212  57.3776245  31.1675954  32.0776653  19.9940038
  31.1708450  31.1329269  19.8400843  30.5064034  32.2072935  20.6738949
  17.4419546  50.9055901  14.1337156  17.1351016  50.2665091  13.4905612
  16.7240751  50.9757471  14.7629690  72.9315090  78.2360888  58.6937428
  73.8059711  77.9859638  58.9920378  72.4686909  78.4877253  59.4929361
  34.0586519  14.1809988  14.5411444  34.9262309  14.0457761  14.9222660
  33.5562086  14.6081579  15.2349150  45.4328632  40.4709578  13.9316607
  44.6905184  40.6675148  14.5030785  45.0534964  40.4227686  13.0541706
  20.2100801  51.0774612  32.4194455  19.3949950  50.8110189  32.8447437
  20.7200336  50.2702284  32.3519945  49.4069481  19.5812297   6.1086434
  49.6959066  19.6423030   7.0191407  50.1379728  19.1640115   5.6528312
  52.1835661  47.3687029  16.7834616  52.5232458  46.6932106  16.1964715
  51.4292812  47.7320051  16.3194621  26.6430998  31.9372869  13.6013973
  26.1232281  32.4075675  12.9496276  26.0989881  31.1891675  13.8473451
  46.6329336  33.9647388   2.5365496  45.8576918  33.5792136   2.9447210
  46.2835026  34.5939183   1.9054684  33.5701060  12.6820087  67.0286369
  33.4167147  13.2261181  66.2562084  33.8809109  13.2946014  67.6952410
  54.2032623  48.5046101  64.2798758  55.1586199  48.4887981  64.3370819
  53.9647818  49.4042063  64.5036554  60.2507639  39.1851735   1.3924591
  60.8465290  39.5818186   2.0280465  59.5704269  39.8448920   1.2577564
  69.8092651  54.1927433  14.8545754  70.5305052  54.0167713  14.2503583
  69.0535450  54.3457079  14.2873728  47.9665899  34.4535804   6.5990663
  47.2499275  33.9276695   6.9540858  48.6183691  34.4743371   7.2997683
  81.9072723  75.7539511   1.3603283  81.8517303  75.8631039   2.3096608
  81.7931080  74.8139668   1.2202305  46.3157320  43.4443474  17.1274149
  46.4328384  43.4319305  16.1774874  46.7170668  42.6293182  17.4288917
  45.3565979  36.0743022  11.9462752  44.9365473  35.5984950  12.6627934
  44.7511768  35.9826732  11.2105429  22.8148603  17.1465051  19.7393262
  22.8056955  17.4784517  20.6370783  21.8909502  17.0890152  19.4957793
  53.9261150  43.7135029   9.7069198  54.2620754  43.5576534   8.8242680
  53.3016062  43.0032349   9.8543674  80.7397652  71.5013552  64.6041918
  80.4060745  70.8923864  65.2630043  81.4438438  71.0208797  64.1686964
   0.7378558  45.7510471   1.6249827  -0.1243339  45.3835726   1.8194641
   1.3243607  45.3322315   2.2549333  24.0024352  14.8936498  11.4615190
  23.4034371  15.2441168  10.8022726  23.4439921  14.7025025  12.2150695
   5.8225042  45.7292700  15.8010519   6.2147737  44.8786211  15.6041825
   5.2682436  45.5665493  16.5643013  16.8234301  36.1136770  13.7869716
  16.2963915  36.9075537  13.8776374  17.4550557  36.3228059  13.0988240
  71.4624643  33.5777712  25.0889516  71.6650820  34.4964671  25.2655244
  70.5183697  33.5667014  24.9315143  17.3558891  23.3933687  64.8671627
  16.7167318  24.0359378  65.1750803  17.8258383  23.8411379  64.1636848
  18.1480896  39.7027588  34.4814205  17.6841688  38.8774014  34.3407130
  18.0147290  40.1937151  33.6706138  47.7951431  41.3855505   5.7766175
  48.5454464  41.4736223   5.1888049  47.2256470  40.7491064   5.3443635
  40.7431555  52.5466967  19.7571063  41.5863228  52.9422140  19.5360494
  40.3451347  53.1605339  20.3743696  44.1959238  45.4213047  14.2881811
  43.6515665  44.6542168  14.1107273  43.6450243  45.9856224  14.8306644
  74.7516584  65.1997232  69.6389818  74.1433811  64.7303915  69.0680504
  74.3288136  65.1916409  70.4976845  82.1238041  53.3448505  39.5222378
  82.5211906  52.4925232  39.3437433  82.2417355  53.4716702  40.4636431
  19.0109026  13.8946736  13.1712985  18.6967599  13.6686409  12.2958231
  18.4173894  13.4346652  13.7649024  69.3560505  80.4190159  53.4012413
  69.8549366  80.2662182  54.2037344  69.9121857  80.0719643  52.7037430
  81.9928932   3.1022546  68.0766773  81.4812183   2.3042676  67.9438686
  82.7052498   3.0386674  67.4404812  29.6970868  19.4131327  14.2345214
  30.2938199  19.9320841  13.6952329  29.6465659  19.8902082  15.0628197
  52.2537088  49.6177149   2.6129147  51.9992399  50.5202913   2.8048211
  52.7308655  49.6742535   1.7850533  69.2676544  79.2783070  67.8960562
  68.7774372  80.0958443  67.8091621  70.1714230  79.5180273  67.6912022
  55.9119558  49.7952986   5.7965517  56.2439823  49.3536901   6.5781999
  55.5396271  49.0922832   5.2642208  77.5255156   2.9155710  68.5540819
  77.4992609   3.1418377  67.6243782  78.2040453   3.4831819  68.9196587
  36.6178012  36.1360121  18.0528975  36.5386391  35.5955029  17.2668850
  37.0899510  36.9157553  17.7608252   3.1890759  73.0658627  63.7407684
   3.9397949  72.6750851  64.1879177   2.6778477  73.4716082  64.4409418
  51.5853739  11.0831392   1.2328523  51.1166716  10.2778828   1.4522028
  50.9037542  11.6809487   0.9258395  20.5167747  15.2212119  68.4874344
  20.6062627  15.5386686  69.3860149  20.6392384  14.2742610  68.5546494
   1.4030622  60.4419899  11.8194950   0.4676378  60.2670956  11.7164230
   1.6115408  60.1207924  12.6967633  30.5732703  40.5666351  22.9251814
  30.7987356  40.5190277  21.9961309  29.9496198  41.2904358  22.9835129
  77.6272011  62.4343348  44.5020866  78.3454990  62.1867132  43.9198780
  77.1692276  63.1324196  44.0339279  81.5065861  57.4296331  64.0847015
  81.8773746  58.0016088  63.4126902  81.0799599  56.7278051  63.5931110
  34.2772174  34.4153714  15.2794933  33.9655042  34.1052890  16.1297381
  34.4075322  35.3558898  15.4006326  25.4046249  17.9961419  19.8393548
  25.5854535  17.5431561  19.0157413  24.5729637  17.6279116  20.1376438
  42.6065779  64.0210104  61.7766571  41.9685984  64.0229225  61.0630703
  43.4126234  64.3492460  61.3781786  34.9934316  56.1751270  25.6798506
  34.5423317  56.2432861  24.8383665  34.5184302  56.7745018  26.2554836
  69.5330095  13.2254791  63.9343166  68.7914610  13.8143361  64.0742636
  69.7425413  13.3208191  63.0052090  79.8521185  76.0044003  58.8178587
  80.1049519  76.6384840  59.4888592  79.9506426  75.1528549  59.2437649
  36.2148523  47.0828295   9.6265543  35.3468847  47.1316004   9.2259490
  36.7154598  46.5110350   9.0445977  39.9952173  16.6657138  16.4352989
  40.3500605  16.8051779  15.5573070  39.8547888  15.7204235  16.4895093
  19.2970049   2.8128371  62.1639490  18.8122976   3.0228278  61.3657045
  20.1264167   3.2814872  62.0708084  63.1408596  61.0424042  67.5759220
  62.6647472  60.3197289  67.1669006  63.2919645  60.7511568  68.4751272
  23.7189174  35.9216523  21.6844606  22.8143597  36.0275412  21.9790721
  24.1943765  36.6354203  22.1095586  84.1351414  57.2906208  43.9466763
  83.4478283  57.1695375  44.6017885  83.8148308  58.0020428  43.3921480
  71.9521379  71.6836357  68.4520102  71.3075542  71.6525745  69.1589594
  72.1466732  72.6148462  68.3460093   2.8990027  23.0750942  67.2269154
   2.3798607  22.5802374  67.8608227   2.4046133  23.0103612  66.4098310
  64.1911650  75.0872183  43.1377649  64.4031334  75.7947111  42.5288630
  64.7104597  75.2795410  43.9185190  51.1646938  75.0764275  55.0005865
  51.8640661  75.7299280  54.9932718  51.1516666  74.7496176  55.9001732
  76.8914175  70.0747156  68.5139513  76.6267109  70.1422453  69.4313383
  77.1996355  69.1734505  68.4193230  55.4008722  70.9605169  61.3550711
  54.8245382  70.4846859  60.7570267  55.5335236  71.8101311  60.9346008
  21.5651679  43.3968830  13.4377539  22.4336696  43.6628151  13.7397742
  21.7050505  43.0986309  12.5390267  51.6318130  36.3932681   1.3090128
  51.7048264  35.4584694   1.5014982  52.4316978  36.7753601   1.6701482
  51.6673803  41.6526413   6.0076278  51.7074919  42.5910616   6.1920023
  50.7919407  41.5169907   5.6450790  43.4286356  60.3956842  20.5768728
  42.6547146  60.5275106  20.0292397  43.2850122  59.5462036  20.9939909
  55.0124645  48.4010077   9.5808423  55.7143688  48.8275003   9.0892470
  55.3566313  47.5312328   9.7840083   1.4863770   4.8763981  14.3926859
   0.9579551   5.4024273  14.9929321   0.9365574   4.7747788  13.6157668
  45.2846241  12.9047143  53.6280966  45.0419712  12.4521005  52.8203297
  44.6154881  13.5809326  53.7340212  59.2108583  48.4171104  24.4349837
  59.3563890  47.7871561  25.1408219  60.0112057  48.3791828  23.9113092
  18.8406551  80.1375103  24.5118713  19.6938980  80.2732944  24.9239039
  18.3704960  79.5647764  25.1178098  35.5296779   0.8211371  49.8696232
  34.8961926   0.1086555  49.9550390  36.3202500   0.4911914  50.2966642
  70.6121874  32.1967340   2.0973375  71.3759708  32.4496794   2.6158792
  70.6619692  31.2421274   2.0475428  28.8698339  27.3691201   6.7423487
  28.3555245  27.2211814   7.5359666  28.2723093  27.8277850   6.1517370
  56.6971397  47.2441578  17.3826480  56.6047859  46.3059378  17.5483179
  56.4352942  47.6593876  18.2043839  46.6830492  40.5284119  17.4182403
  47.2196293  39.8379874  17.0288479  45.8037281  40.3710365  17.0743489
  37.1800137  36.8181753   6.1871517  37.1404600  36.9207740   5.2362883
  36.3806057  36.3412118   6.4100498  49.1378832  31.3231516   9.7918105
  49.2401314  31.3596344  10.7428348  49.2006636  32.2354579   9.5089948
  45.2729130  57.0452595  14.4110167  46.1910105  56.8212223  14.5631313
  44.8947096  57.1139240  15.2876472  29.2422938   4.7666574  61.4760113
  29.9442363   4.4468412  60.9092426  29.4924021   4.4773787  62.3535061
  66.6373873  34.4107604   1.3477026  67.0626640  34.0532684   2.1271731
  66.2501287  35.2348733   1.6428296  41.2603331  55.9507847  18.5719526
  41.2927818  56.8714333  18.3119845  42.1156549  55.7833672  18.9677095
  44.3965960  52.6716042  15.1212168  43.6754847  52.3846817  14.5609450
  45.1018047  52.0499277  14.9411261  26.9757605  23.7695718   4.3856356
  26.4957547  23.1608772   3.8241035  27.6906776  23.2470942   4.7491491
  37.1220350  51.5889311   7.6601785  37.1647692  52.5217152   7.8706932
  37.1129537  51.1514378   8.5115004  65.5332994  46.5539503  10.5245924
  65.7588673  45.9320307   9.8328042  64.6029186  46.7344856  10.3903317
  49.2800236  41.7348289   3.7620080  49.6612310  42.6088381   3.8457921
  49.8075867  41.3070726   3.0875161   3.6245626  14.3080902  64.9405718
   3.1322575  15.1222920  64.8359632   3.2757473  13.7285817  64.2632771
  19.8997104  27.2605395  51.0977173  20.2040982  27.5753427  50.2465582
  19.6719563  28.0555773  51.5796709  78.2252884  63.5393190  57.5263739
  79.1505051  63.6696720  57.7342415  77.8360987  63.2353401  58.3463526
  46.4089012  49.3748331   5.3044659  45.7673359  48.7133265   5.0455546
  47.2294617  48.8902903   5.3946388  28.6930561  26.7732263  10.5022240
  27.8462863  26.6709590  10.9366786  28.6780167  27.6651645  10.1551652
  39.1923165  80.8085346  32.0386457  38.8155341  80.2865124  32.7469993
  38.9640713  81.7116070  32.2590947  37.7377057  48.5986805   5.6317508
  37.3189926  49.3779707   5.2662104  38.4280753  48.9416075   6.1992216
  57.1893978  61.9417858   2.2671606  56.8117952  62.7865934   2.5120041
  56.6304159  61.6263723   1.5570334  33.2988667  48.3172035   9.7149229
  33.4280205  47.7517796   8.9534444  33.4118772  49.2051601   9.3758261
  81.8881989  19.2192435  61.8028307  82.7604008  18.8250339  61.7932224
  81.3066959  18.5215867  61.5005636  55.3029680  43.4618378  15.6394506
  54.7227049  43.1952190  14.9263990  55.6086588  42.6384830  16.0200691
  35.6188607  63.8107300   1.3189952  34.6862864  63.7508249   1.5262294
  35.8059239  64.7494507   1.3258664  73.3661842  48.5012388  17.7836406
  73.9501143  48.3632421  17.0378435  73.9160585  48.9238739  18.4433746
  59.9573183  64.9552345   2.0640151  59.2488289  65.4755592   1.6851483
  60.0263834  64.1915226   1.4911270  76.4825106  58.0519819   9.5971990
  75.5606842  58.2271528   9.4080502  76.5278578  58.0134153  10.5525458
  42.3277998  55.7729626  14.5959878  42.3279190  56.7104149  14.4025636
  41.9339371  55.3689194  13.8227797  83.4778214  18.2607090  50.1436949
  84.3698978  18.1908655  49.8037624  83.1045055  19.0127099  49.6839523
  51.5940380  57.3447847   6.5219671  50.8488226  57.0196342   6.0168308
  51.6804743  56.7256498   7.2468370  18.6015511  29.7815061  63.3327341
  18.4000635  28.9503074  63.7625551  17.7693117  30.0623250  62.9522753
  15.5347359   7.0609087  60.2619219  15.5186713   7.9172313  60.6893396
  14.6604359   6.7015672  60.4126072  58.0763054  54.0608215  26.9449711
  57.6151943  54.5227909  27.6451063  58.2027292  53.1751060  27.2851992
  45.7561827  31.5235329  12.3235774  45.5361128  31.3465667  11.4089811
  45.7178259  30.6670260  12.7492023   2.8059888  27.3727727   8.3569735
   1.9935527  27.0231438   8.7229508   3.4635949  27.2076774   9.0326428
  35.0270009  66.4387798  24.8019552  34.7603965  67.3576164  24.7720098
  34.2598128  65.9566116  24.4934607   3.6038038  17.9635119  66.7534971
   3.8929448  17.1492219  67.1652699   3.9184070  17.9007196  65.8516550
  77.6046753  27.9819465  17.7017987  77.8759146  27.9080915  18.6167884
  76.7243576  28.3556175  17.7423620  70.7179976  40.6638050  27.0177794
  70.7036209  39.9081302  26.4304280  70.9297037  41.4046240  26.4498019
  53.8974953  41.6636801   2.2275855  53.0749893  42.1404696   2.1163014
  53.7632704  41.1348486   3.0140671  72.7715826  62.9864168  55.3684711
  71.8335962  62.8950453  55.2009439  72.8290462  63.1967449  56.3005114
  39.5171475  20.0973439  50.9835339  39.5487642  21.0524917  51.0376072
  39.2723012  19.8155236  51.8649292  46.5857887  39.0153027   1.1073618
  47.1249342  38.2398105   0.9519183  47.1757650  39.6351266   1.5362939
  79.0206194  40.4406595   4.8822737  78.7409210  39.9242163   5.6381094
  78.2316685  40.5292606   4.3475410  66.8827677  43.1067753  57.8571272
  66.8657446  43.4950972  58.7318563  65.9666681  42.9047966  57.6668692
  20.0042033  11.4633274  67.2586679  19.9641049  12.0356250  68.0248880
  19.2315340  10.9037864  67.3369455  52.7722931  49.5799589  10.8407724
  53.5147667  49.2324591  10.3466010  52.0225859  49.0670300  10.5389857
  84.4193459   7.3650932  65.1279163  83.7882900   8.0845439  65.1080847
  85.1420784   7.6651758  64.5767069  68.1079292  54.0598345   5.3688943
  68.2797575  54.1402674   6.3071042  67.4233341  54.7057199   5.1945436
  50.4856348  49.8515749   6.1641109  51.4396286  49.7741556   6.1524904
  50.2171564  49.3856859   6.9560093  33.4161544  33.5343981  20.5729675
  34.1964722  33.0294514  20.8018088  32.7758694  32.8763342  20.3023767
  79.2499304  66.3262558  54.9824095  78.6062002  66.5774488  54.3200302
  78.7341690  66.1855412  55.7764006  48.2589531  40.9747171   8.4042001
  47.9462910  40.9557009   7.4997050  48.3721304  40.0534153   8.6379147
  51.9984055  62.3056078  26.0590720  52.4330139  62.4843121  26.8929887
  52.6374483  62.5653362  25.3954482  35.6978631  43.9773083   5.4339683
  35.2547216  43.1474209   5.2574974  35.3098536  44.2867041   6.2524772
  59.2473316  25.0066328   1.3806419  58.5143709  25.0213814   0.7651865
  59.6229601  25.8854079   1.3268661  38.0010223  67.7221060  18.4562552
  38.2328486  68.6398935  18.3143008  38.7846422  67.2349787  18.2015383
  26.4812660  52.8980207  21.7822909  26.4584851  51.9412661  21.8003821
  26.4248991  53.1214190  20.8532333  74.3353558   1.1385200  42.4915981
  74.2788792   1.0117543  41.5445137  74.7862196   1.9765790  42.5946093
  54.2225122  38.6761260   7.1211475  54.2920542  39.1892290   7.9262078
  53.4325218  38.1489801   7.2405857  33.7765455  36.2963748  67.9011297
  33.5014677  37.0852900  68.3682251  34.1603684  35.7388711  68.5779619
  32.1992278  27.9532862  65.8849430  33.0597925  28.3599639  65.9862900
  32.3441243  27.0306611  66.0947037  27.1832108  15.4706967  61.2341690
  26.4839149  14.8327076  61.3762522  27.7151322  15.0912285  60.5346727
  20.7682323  18.8265634  68.9327908  20.4622555  18.7679160  68.0277109
  21.7214561  18.8755333  68.8606691  54.8683214  17.5933468   9.5439124
  55.1500654  16.7062068   9.3206823  55.6402397  18.1367660   9.3855894
  11.4358771  16.4111626  67.5840330  11.7480040  16.0785222  68.4255505
  11.4295530  15.6445360  67.0109034  49.5003176  64.9134827   0.7915527
  49.6224833  64.1178799   1.3095531  49.7542286  64.6624041  -0.0965474
  20.2629471  24.7831178  64.1103077  19.6462846  25.4557753  64.3992519
  20.4301643  24.9905157  63.1909275  51.5038443  53.4980392  10.2506387
  51.4147663  52.9986525  11.0623717  52.4470091  53.6278772  10.1515853
  60.2622271  51.5599918  17.9553580  59.3568945  51.3410187  17.7347708
  60.3526688  51.3074303  18.8741970   8.5798395  37.6886272  68.2595158
   8.5389388  37.0224953  67.5733471   7.6735699  37.9771233  68.3675814
  26.5199184  24.4645119  53.7420845  25.8281326  24.7404337  54.3433619
  26.3408399  24.9454236  52.9340696  52.2136831  35.9926796  17.5899410
  51.7109871  36.8060517  17.6341367  53.1222343  36.2776518  17.4921787
  82.6845169  57.4421978   5.2999347  82.8808498  58.3036518   5.6681502
  82.2758579  56.9615126   6.0197788  47.0963907  70.2285862   9.5674807
  47.1122408  69.3669176   9.1509455  47.8956652  70.6572676   9.2614973
  55.4980946  63.2252693   6.5801293  56.3384342  63.2718754   7.0360774
  55.0012827  62.5630665   7.0606488  57.7231073  27.9297709   5.3082556
  57.7348995  28.8063502   5.6925780  57.2586775  27.3929381   5.9503996
   0.1627615  81.0131550  65.8076239  -0.1603349  80.5385876  66.5735388
   0.9859528  80.5779362  65.5858850  49.9935007  62.5230026  15.5762589
  50.2920008  63.4322643  15.5569267  49.6891403  62.3518324  14.6850252
  38.6538386  32.9813027  13.7167346  39.3324637  33.4245276  13.2075667
  38.0207586  32.6831079  13.0636489  32.4015999  57.7284050   4.3806520
  31.6363215  58.0383635   4.8649147  32.3789811  58.2177353   3.5582894
  84.0855694  46.4248562  63.7234640  84.5369339  46.0889435  62.9490805
  84.7883415  46.6303396  64.3400049  42.4771595  77.4044228  14.4534099
  43.0881310  76.9352055  15.0215483  41.6932011  76.8553782  14.4394898
  67.3086023   4.4085363   8.5454291  67.7424479   4.7071746   9.3446928
  66.3851595   4.3363184   8.7868249  30.0250673  16.5659356  69.6594000
  29.3077874  15.9816301  69.9050188  30.4658127  16.1146247  68.9394760
  56.1022663  62.5728512  11.6013503  56.3334799  61.6912556  11.3088441
  56.5873003  62.6890373  12.4183428  47.4368906  52.0448112   8.4488493
  47.7972460  52.3643064   7.6216269  47.1737909  52.8369761   8.9173394
  57.8848839  78.0265760  59.1862583  58.3107996  77.8480101  60.0246763
  57.7359200  78.9721107  59.1898680  41.1872482  77.0662022   6.0799915
  40.4698753  76.8059778   5.5021614  41.1447144  76.4467859   6.8085134
  41.2836075   3.1419560  56.5626192  40.5803776   2.7942753  56.0141516
  41.9197321   3.4955230  55.9408712  54.4634295  35.9653854  22.3878884
  55.1314449  35.3065920  22.1982193  53.9831877  36.0631442  21.5656686
  62.8664637  77.4550819  64.9110413  63.3061647  77.4382591  65.7611084
  63.4279203  78.0021477  64.3617535  71.5581083  19.5606530  19.1925275
  72.4657583  19.2931974  19.3370008  71.1310577  19.4255459  20.0384617
  44.7033787  27.6593733  15.7040036  45.0746536  26.7783523  15.7507646
  43.7889671  27.5211382  15.4570723  20.3133965  29.6244431  55.0181866
  19.8799121  30.4528570  55.2232552  19.5957923  29.0049982  54.8856688
  50.3462315  37.9936099  18.4093976  49.7417164  38.2189083  17.7022636
  50.4528809  38.8075161  18.9017534  15.5679727  80.8039379  52.8562546
  15.6382608  81.6299152  52.3776627  15.8390999  80.1374912  52.2249222
  74.9811697  20.6894326  23.6163378  74.9085951  19.8949528  24.1452694
  75.9130621  20.7537484  23.4073687  43.1559753  67.0311785   4.7720248
  43.6979580  67.4237776   4.0876639  43.0424500  66.1218596   4.4954664
  49.8077011  35.6571603  19.7580218  49.8000336  35.0403881  19.0260625
  49.6102047  36.5046144  19.3592131  20.2768183  41.0473061  14.2089605
  20.5653858  41.7619228  13.6412549  19.4082093  40.8159161  13.8800120
  61.0772562  51.7786551  10.8839035  61.7438793  51.9335556  11.5531218
  61.1422014  50.8428907  10.6932271  71.2477160  30.7897878  25.0498557
  71.9277716  30.3630042  25.5710196  71.4547873  31.7227650  25.1037693
  43.6080503  43.7034416  11.1541784  43.5988379  43.9743042  12.0722103
  43.1575394  42.8589058  11.1491048  32.1727395  56.5140629   7.1323520
  31.5623784  57.2215748   6.9247013  31.7000055  55.7144260   6.9014192
  52.6427603  48.0728245  21.3044548  51.9104862  47.4841738  21.1214256
  52.6196718  48.7123442  20.5926180  13.9324176  21.9543886  35.4957724
  14.3535435  21.7905903  34.6519399  13.0111885  22.0988417  35.2796698
  48.0634975  44.7284842   0.4103516  47.2247553  44.5287037   0.8260831
  48.2688379  45.6173086   0.7002836  64.9602270  68.8444757  68.1976938
  64.3292284  68.3965683  67.6342726  65.4146338  68.1382895  68.6570930
  36.3783097  70.3985453  23.1734800  36.2523103  71.2903166  23.4976768
  35.6785274  69.8924971  23.5863376  63.7151098  63.1668854  15.0715005
  64.4382811  63.7273741  15.3527522  63.9938259  62.2813034  15.3045094
  84.8216915  75.4992867  60.1197672  85.5179691  75.9005213  60.6398010
  84.4091225  76.2334871  59.6648216  55.6702566  58.6178780   5.1846254
  56.1762381  59.4273186   5.2554631  54.8433685  58.8129425   5.6255752
  25.0536466   6.6834879  64.4551277  25.4009700   7.1635419  65.2068901
  24.2789578   7.1798611  64.1911125  74.3892670  38.4945750  12.3421240
  75.1415062  38.8870549  12.7852178  74.2211437  39.0727377  11.5980172
  55.0366211  59.7126293  18.5235620  54.3226576  59.0756750  18.4956741
  54.6469879  60.5236053  18.1968534  73.2333469  57.7650547   5.7963610
  73.9239550  57.1024990   5.7787263  73.6370945  58.5422039   5.4100209
  14.6200478  35.7575798  69.1122293  14.0573311  35.6895828  68.3408928
  15.2571666  36.4348221  68.8849497  70.4571629  43.0246544   5.5433363
  71.2752199  42.6083469   5.8148092  70.6169224  43.9618444   5.6545949
  60.7983351  80.4054356  64.3021774  60.8699226  79.9524975  63.4619665
  59.8597288  80.4154778  64.4896555  16.1073601  66.2199926  68.0844116
  15.6645036  66.0230398  68.9098310  17.0187330  66.3749933  68.3326197
  25.9055257  21.7190886  54.3900204  25.6008625  21.5765524  53.4938622
  26.0564446  22.6627469  54.4444466  59.2153502  58.8340187   7.3488665
  59.6766806  58.2381010   7.9390264  59.7772026  59.6075678   7.3022854
  15.6626213  11.1183560  69.7049570  15.6148744  11.7841125  70.3910494
  16.5959144  11.0474801  69.5045280  38.8929820   0.6684759  64.8416090
  39.2873716   0.1840777  64.1163158  37.9897141   0.3536687  64.8767853
  80.7800579  38.2357502  14.1359270  80.1513195  37.7032351  14.6231151
  80.2670002  38.9764309  13.8128233   2.3566124   2.2671816  13.9309788
   2.0932947   2.9999012  14.4877720   2.1508411   1.4879346  14.4473743
  54.0096760  71.2766933  28.8374472  54.5419121  71.1988497  29.6292162
  54.4812679  71.9069624  28.2928467  41.1536932  72.1436310  38.5424852
  40.4033375  72.2796249  37.9639506  41.0894871  72.8478718  39.1875792
   0.9590171  77.4404049  69.7882175   1.8575600  77.1127558  69.7494888
   0.7108255  77.3507214  70.7083178  60.5231094  31.0049415  20.1984024
  61.2093163  31.0041142  20.8657432  60.5002165  30.1035047  19.8772788
  57.4446678  51.1654234  17.5725961  57.3537064  50.5743265  18.3199668
  57.0665932  50.6823778  16.8377805  48.8378191  38.0723071   8.4175164
  48.2187366  37.4253201   8.7557060  48.8513374  37.9198241   7.4726367
  74.6878672  31.1635923  25.8753252  75.5882502  30.8935428  25.6947231
  74.7513056  31.6919804  26.6709471  21.7378211   1.1040706  56.3171530
  22.1691680   1.8421990  56.7476606  21.9124675   0.3573283  56.8899584
  59.2711449  39.5335436  15.6403327  60.0926113  39.0427327  15.6632853
  59.5391798  40.4513597  15.6850946  67.5868464  68.5220003  63.0826187
  67.6222658  69.2064714  63.7508059  68.2947636  67.9218006  63.3168125
  17.4043941  19.7985387  66.5267801  18.3026588  20.0005794  66.7885685
  17.3809397  19.9843693  65.5880880  66.5648413  66.9341850  33.6380196
  66.7220449  66.1154270  33.1677508  67.4365091  67.3089314  33.7644672
  83.7589741  16.0647047  67.6958561  84.2124367  15.8054054  68.4979534
  84.4595051  16.3283002  67.0991945  44.6570504  40.6136734  -0.3003972
  43.8118375  40.5007965   0.1344688  45.2550328  40.0476486   0.1877267
  59.0181541  53.7729502  18.9793253  58.5983658  53.7711668  18.1190872
  59.8649502  53.3511782  18.8334846  54.2218590  47.9698277   3.8856265
  53.7701130  48.4817553   3.2147419  53.8677359  47.0855856   3.7910753
  54.1211891   3.0184069  70.1058674  54.2562342   3.1527108  69.1678095
  53.2389784   2.6527533  70.1709127  62.0024014  50.4928923   7.2866625
  62.6419258  51.1607647   7.5340235  61.2891674  50.9837484   6.8785119
  38.1253052  52.1155453  19.5928848  37.7817416  52.7598143  18.9739239
  39.0636706  52.0815229  19.4070148  69.4363737  55.7323599  12.4219108
  69.0665293  55.0885344  11.8178141  70.2394390  56.0289288  11.9936943
  26.5380406  53.3944273   1.9614473  26.4895844  53.7786961   2.8367871
  26.1869001  52.5103807   2.0681925  62.2321463  33.8774896  15.3291559
  62.7845001  33.8043284  14.5508337  61.8578243  33.0035472  15.4402161
  24.0752411  46.7383766  66.7200327  24.9409080  46.6314363  67.1142673
  24.0078259  47.6762533  66.5409422  47.3733807  79.6970844  39.4856834
  47.0276928  80.5690479  39.6764946  47.1660519  79.1814280  40.2650070
  38.8654447  53.9667130   8.9699006  38.6191583  54.0647078   9.8896676
  38.1544828  54.3864346   8.4855467  25.8423090  28.6893463  59.5878792
  26.2748098  27.8391075  59.5087194  24.9083495  28.4899211  59.5232153
  17.0885110   3.6812812  65.6120634  17.3410130   4.2062253  66.3716078
  16.2476242   3.2949442  65.8567762  41.3408375  32.3341846   1.6057977
  41.0534430  33.0682778   1.0628958  41.1945152  31.5612674   1.0604347
  47.8523111  73.0335808  14.4916368  48.6213160  73.3004761  13.9880145
  47.3864937  72.4282122  13.9147699  79.9540997  58.7150955  15.7282269
  79.9349117  59.3451548  15.0078881  80.6813335  59.0037680  16.2796164
  43.7732887  70.6155825  22.9767179  43.6537170  69.9061012  23.6080408
  42.9936314  71.1613464  23.0792379  65.6089067  70.6092262  27.2718215
  65.4799891  71.1367750  28.0600476  64.9059772  70.8831406  26.6826725
  57.4953747  41.3058567   7.5231427  56.8536425  40.7056046   7.9027593
  58.1430531  41.4337015   8.2162535  56.0044241  51.0014963  21.7087436
  55.0839043  51.2580395  21.7640877  56.3529444  51.1695147  22.5842643
  26.1311340   6.9890672  67.7932596  26.9394517   6.5426350  67.5411606
  25.5466342   6.2852913  68.0748463  12.9986608  26.8868828  59.5648384
  13.2033443  26.6479182  58.6608267  13.4998631  27.6874185  59.7203064
  75.2869701  38.9170671  42.2519398  76.0733414  39.0305376  41.7181110
  74.5669174  38.9196491  41.6212654  58.0066252  56.5130854  19.4352162
  58.5769796  55.7704401  19.6337259  57.8616381  56.9365978  20.2812934
  73.9939356  74.3902683  27.1004653  73.4263325  74.7957659  27.7559280
  74.8585224  74.7656870  27.2671413  34.2387533  61.6055584  15.2730644
  33.5693574  61.6105890  15.9572518  33.9748311  62.3044491  14.6746230
  39.2707062  58.6713409  25.6669641  39.2021513  58.1136513  26.4418936
  39.3114114  59.5618629  26.0155964  21.9693923  66.1574030  20.4118896
  22.8003073  65.9230804  20.8252978  21.3831592  66.3486433  21.1440015
  39.2796016   8.4609425  68.0063677  38.6943746   8.0810666  67.3510551
  39.5578265   9.2936546  67.6250362  44.0584230  55.2699518  16.5154994
  43.4365320  55.6003618  15.8671808  44.3726778  54.4443464  16.1469162
  64.7456598  56.2560415   9.0876228  64.3957710  57.1267891   9.2763078
  65.6626797  56.3026285   9.3580675  81.9365025   9.5710695  22.5058103
  81.6714668   8.9294326  23.1648135  82.3438358   9.0496826  21.8140960
  15.3709686  41.7419243  67.3541260  14.5225966  41.2988281  67.3414850
  15.1597369  42.6587296  67.5304127  47.6868773  77.6992559  25.1995635
  47.7017117  76.9416428  24.6147251  46.7994547  77.7076054  25.5582404
  63.7722683  52.6589251  14.3616331  64.1012907  53.5577965  14.3583214
  63.8047361  52.3953772  15.2812624  75.0436211  71.1739016  32.2171474
  75.7220411  71.0050058  32.8709435  74.5617676  71.9261885  32.5608253
  61.1493778  75.4737902   6.7383528  61.4216089  74.8161268   7.3783493
  61.9681311  75.8657694   6.4346647  62.0113897  59.5306778  26.9550872
  61.4978266  58.7274122  27.0402241  62.8358269  59.2471123  26.5599704
  26.8728995  64.0192842  10.1293790  25.9967566  64.3870354  10.0137913
  27.2798109  64.5743895  10.7945943  60.6344986  79.2625523  17.5324273
  59.9930000  78.5620356  17.6507258  61.1349678  79.0009975  16.7595422
  53.5243607  59.5520115  27.7363849  53.8986588  60.4191256  27.5806832
  53.2508755  59.2501307  26.8701816  69.1732788  48.8055611  18.7880480
  69.6842146  49.5021868  19.2002225  69.6156168  47.9977417  19.0488064
  61.0332251  36.8575764  18.2588625  61.4205980  36.8479466  17.3836029
  60.8107471  35.9429049  18.4323955  52.2459221   3.3833820   4.7605240
  51.9439363   3.6383891   5.6323087  51.8240643   2.5396249   4.5982230
  63.7440825  61.1382532  12.3122299  64.3759966  60.5434370  11.9083595
  63.6687374  60.8303833  13.2154298  71.5735197  72.8771114   6.0847729
  71.8587923  73.7306881   5.7588047  70.8017778  72.6658201   5.5594140
  45.7995081  72.3848486  11.0069919  46.0484219  71.6641378  10.4283285
  45.6354284  71.9673586  11.8525743  73.1172085  52.1203279   3.7428150
  72.6492977  52.6351213   3.0853355  72.4422169  51.5716648   4.1422963
  59.5297146  69.4989061   6.8407691  58.9046049  69.0711737   7.4260187
  59.3313408  70.4320383   6.9191337  73.7109089  40.9629631  27.7014136
  72.7583981  41.0505152  27.7373505  73.9172029  40.3130341  28.3731747
  71.0586023   0.2456824   6.7238879  71.9344616   0.4174668   7.0697153
  70.4914284   0.8570827   7.1937084  57.0122004  56.9315290  14.8221731
  57.3854113  57.3615265  15.5916190  56.2142611  57.4259710  14.6349370
  51.3864040  60.2092457  19.3762088  50.7283068  60.3734016  18.7007856
  51.6145515  59.2858458  19.2689228  69.1962624  60.8895588  29.2321968
  69.3605518  60.2052975  28.5833287  68.2716036  61.1097240  29.1192269
  55.4256344  72.9616308   9.6954209  55.6890106  72.4826002  10.4811633
  54.5937538  72.5632000   9.4395787  50.8727884  12.9580164  43.2046747
  49.9883938  13.1085908  42.8708982  51.3585997  13.7455058  42.9595613
  80.3878117  61.7488718  61.7796993  79.5338345  62.0964384  61.5224838
  80.4265594  61.8850422  62.7263737  34.5927143  52.5861359   1.4392638
  33.6824131  52.6510000   1.1505158  35.0027585  51.9951010   0.8077762
  39.0534186  24.7629094   1.2973146  38.2157373  24.6367598   1.7429690
  39.7084689  24.4723344   1.9319050  28.8690495   5.9748966   7.5361252
  28.6705136   5.0480306   7.6692969  28.3997059   6.4238089   8.2392800
   2.7144605  67.3409367  55.3275347   1.7675893  67.4518394  55.4133654
   2.9878527  66.9615126  56.1627150  78.7104940  78.4029245  56.5706682
  78.2537937  77.8770542  57.2272587  79.3234205  78.9372015  57.0757437
  68.4211540  66.5763426  42.9134178  69.0527582  67.2736359  43.0897331
  67.5785732  67.0263386  42.8518200   8.7995291  43.6193228  41.7684460
   9.2239875  44.4724798  41.6779470   8.2860512  43.5210085  40.9666300
  62.9475069  42.4487972  17.5878108  62.3838568  41.8854427  17.0575666
  62.9199219  43.2980967  17.1471715  40.9466600  33.8549566  12.1073616
  41.0160923  32.9227948  11.9012332  40.4713726  34.2295003  11.3657093
  47.9057932  38.5305548  15.9833384  47.5358343  38.0036521  15.2750027
  48.6175203  39.0201616  15.5710745  32.2075963  39.5719981   1.3033772
  31.3073349  39.6713185   0.9937098  32.2351432  38.6931968   1.6817716
  22.6669407  14.3019104  63.7116623  22.9637957  14.0362418  64.5820236
  23.4286141  14.7279596  63.3185148  76.1173248  62.6462603  47.2711992
  75.5821466  63.3141708  46.8425798  76.8545580  62.5116062  46.6757250
  80.4028511  69.6138382  19.3245327  79.9849701  69.3387127  20.1405692
  80.3691959  68.8380766  18.7648094  43.7521029  48.8200951  65.7327461
  44.0640068  49.6666527  65.4129171  43.4014702  48.3848763  64.9556589
  82.0421696  72.3417854  61.7285395  82.7400970  72.2080374  62.3698235
  81.7879200  71.4578819  61.4633989  37.1984863  12.2289848  54.3988991
  36.4688444  11.7563546  54.7994900  36.9869924  13.1530464  54.5316124
  37.9925323   6.6021508  19.2451954  37.1948886   7.0315152  18.9359367
  37.8363776   6.4493477  20.1771283   4.0134522  80.5525589  52.8841734
   3.3067048  80.3391171  53.4934235   3.6731565  81.2843609  52.3694992
  55.1919270  32.3365784  10.2085590  54.9759436  32.9415774   9.4989419
  54.5439243  32.5231266  10.8879137  48.1287575  17.4967098  23.6750889
  47.7992535  18.0839050  22.9947495  48.7768888  18.0183673  24.1484022
   7.0944089  13.0606401  56.6808462   7.7500629  13.4781480  56.1222410
   7.5416988  12.9271877  57.5165224  76.9699574  76.4081717  60.8431292
  76.3889408  76.9087887  60.2703810  76.7960262  75.4936218  60.6204796
  74.7115040  78.7086964  37.5821710  73.9317942  78.1588602  37.6594186
  74.8413181  79.0650511  38.4610319  11.9679141  11.4912415  61.1436653
  12.3825479  10.8358288  61.7046881  11.6873085  11.0016811  60.3704739
  85.1040649  76.3084888  68.2414150  85.7935143  76.5785599  68.8479996
  84.3152428  76.2603331  68.7814856  61.3611650  75.7784033  61.0522079
  62.0910406  75.1779318  60.9007072  61.5991497  76.5708828  60.5709887
   9.2868710  47.1302605  65.6552029   9.7122788  46.6528320  66.3674641
   8.3902496  47.2675800  65.9608889  66.2806654  42.9448462  10.7850266
  65.6202459  43.5346270  10.4213786  66.9463015  43.5272074  11.1511135
  58.5484028  78.0074501  66.9281435  57.6287317  78.1680346  67.1394587
  58.5362530  77.2133923  66.3937664  53.0583477  49.5521593   6.4217710
  53.4035492  50.4201174   6.6308653  53.6732197  49.1982794   5.7791716
  55.1610518  72.3623991  47.0200443  55.7763433  72.0987034  47.7042294
  54.5006943  71.6695118  47.0117712  73.0597973  54.8387051  58.8665676
  73.9171362  54.6936321  59.2667580  72.5320053  54.0938234  59.1543579
  46.4619732  43.7980747  14.5647776  45.7381296  44.4074821  14.4201767
  47.1756458  44.1421032  14.0276086  78.2380915  74.3620014  65.2711105
  78.3098507  74.9866152  65.9928703  77.3207235  74.4109917  65.0022840
  75.2506733  33.2691383  10.3208041  74.6550751  32.5986052   9.9863178
  75.2170372  33.1664872  11.2718892  48.9270115  38.7043881   2.9147923
  49.5324516  39.1397595   2.3146868  48.6840963  37.8952646   2.4647419
   6.7150486  13.2169783  45.4654598   7.2069651  12.9249501  46.2329006
   7.3313600  13.1293416  44.7383308  69.9436188  71.9096661  45.2578115
  69.8252964  72.6469278  44.6589136  69.1464758  71.3893366  45.1575661
  74.0632391  30.9874320   9.2717558  74.5530033  30.7282805   8.4912407
  73.9001846  30.1662803   9.7358149  46.3733435  42.7092695   9.3674040
  46.9891024  42.1020985   8.9570218  45.7208872  42.8836489   8.6890763
  15.8910036  54.2813683   3.6881566  15.5967641  53.7363911   2.9583240
  16.4106286  54.9721336   3.2769856  78.3640957  47.5712299   0.9115155
  77.4602604  47.2917461   0.7658894  78.8322401  46.7648506   1.1278924
  71.4314890  55.3533888   5.3016794  70.8583117  54.9112177   4.6754330
  71.3190126  56.2850237   5.1129150  71.9370365  24.6235108   2.4648863
  71.7280626  24.5573902   1.5331191  71.3162661  24.0332508   2.8920469
  63.5664320  67.6939201  56.3227510  62.9354811  68.1149483  56.9065905
  63.8567543  66.9184923  56.8030119  51.2164116  25.0417614   9.5666218
  51.5951633  24.2421985   9.2012751  51.5247726  25.0605941  10.4725957
  80.0792122  80.0155544  58.3636856  79.6945906  79.4382286  59.0232229
  80.3742790  80.7804680  58.8577175  64.0327883  38.0567598   5.3249180
  64.8708725  38.5145020   5.2592176  64.2696476  37.1505690   5.5222702
  25.0819445  70.1329565  61.6411209  24.7017193  70.3244066  60.7837963
  24.3627071  70.2690172  62.2579002  61.4530802  12.3452568   3.0471230
  60.5935860  12.0722854   3.3680326  62.0005798  12.3831940   3.8313645
  85.4945946  69.2177534  60.5366325  86.1979866  69.5754051  61.0784435
  84.9804401  69.9820709  60.2764606   0.5936833  26.8593836  57.5782013
   0.0284019  27.5722289  57.8757572   0.0833954  26.4159870  56.9005299
  62.2383499  48.0139160   6.4423829  62.9556990  48.0092001   5.8086497
  62.0660734  48.9418173   6.6022402  51.1757898  47.1877718   3.1989020
  51.9030523  46.7475462   2.7589965  51.3975668  48.1179333   3.1558740
  78.6430550  56.0265017   8.6882353  77.9441071  56.6785669   8.7384647
  78.8453770  55.8214617   9.6010637  85.4933071  65.4930592  39.8085356
  86.0021400  65.5885363  39.0034246  85.2325630  66.3859367  40.0343847
  23.6270952  12.0283008  69.4302511  23.3308101  11.3506854  70.0379372
  23.5368061  11.6298234  68.5646296  80.1875782  37.3161077   0.6963171
  80.7644367  36.7988038   1.2583375  79.9976969  38.1028366   1.2074269
  37.2045088   5.8439857  64.8794889  37.5927830   5.1271391  64.3778849
  36.3149214   5.5474722  65.0716972  14.3900824  71.3728333  62.6655912
  15.0721812  71.4066172  63.3362865  14.8094094  71.7231417  61.8796682
  19.3243766  12.3650002  56.1339378  20.1582718  11.9045782  56.0397863
  19.3903399  12.8095937  56.9790506  11.0792863   2.7930349  42.8464460
  12.0203376   2.6496500  42.9469156  10.9194434   3.6377698  43.2672834
  79.0345287  49.8345566  62.6621294  79.5731401  49.3005657  62.0781946
  79.3935537  50.7178926  62.5781202  47.1363544  22.5457907   3.2641500
  47.0994234  22.1941471   4.1536525  48.0487871  22.4306059   2.9987565
  49.0567398  53.5255432  15.3345454  49.6107531  52.8195429  15.6675172
  48.7013149  53.9417362  16.1198413  18.6294067   2.8796628  55.3190422
  19.5303500   3.0969495  55.0796270  18.6829364   2.6141998  56.2371349
  68.2994461  53.5417461  11.4633870  68.2825089  52.9938269  10.6787002
  67.4866533  53.3286953  11.9218671  52.7585936   4.7760147  57.4993134
  53.6823988   4.6572220  57.7199888  52.2848940   4.3579251  58.2183695
   8.5302120  71.1734486  58.6230755   8.7036026  70.3519583  58.1633759
   8.8356495  71.8531752  58.0223179  43.1738329  69.6383381  53.1634235
  43.5565472  69.1085339  53.8627577  43.8949919  69.7836399  52.5510120
  27.0273328   3.2453156  68.5794020  27.2878528   3.2863793  67.6592493
  26.3714290   3.9360636  68.6736774  69.2147064  53.9859104  68.5746145
  68.7816238  54.6007204  69.1667938  68.5199881  53.3867836  68.3014107
  76.1207151  78.3160448  59.0272951  76.5437222  78.8856792  58.3847904
  75.5398560  77.7596474  58.5083961  60.1892900  57.0180511  15.3188765
  59.8821783  57.8904438  15.0722075  60.0600243  56.4874697  14.5327449
  81.8617630  72.1399689  51.6777372  81.4742661  72.8292608  52.2171307
  82.5245857  72.5899267  51.1538696  37.1839595   8.1728286  66.2118578
  36.9154334   8.7831306  65.5250835  37.1201944   7.3094988  65.8034134
   6.5552258  36.8833327  12.3436522   6.9094259  37.0313454  11.4668024
   5.6156373  37.0416284  12.2522891  10.8606839  46.9016504  53.6838913
  10.6829691  47.1481180  54.5915794  10.1084471  46.3673639  53.4291124
  68.4567690  48.5852480  22.6189327  68.7565136  49.0036726  23.4259677
  69.0190363  48.9513111  21.9362283  34.0994692   8.6871374  34.2781329
  33.2649398   9.0116704  33.9397979  34.0723443   7.7438438  34.1178417
  66.1693096  78.1161928  33.7991023  66.5254021  77.3009014  34.1522717
  65.2543306  77.9134083  33.6043715  10.6467712  71.6616011  40.9338856
   9.8782396  72.2247553  40.8419704  10.3779209  70.9898901  41.5605879
  23.9824915  14.5848787  44.5887089  23.3321047  13.8981175  44.7356319
  23.6003780  15.3661263  44.9885511  83.6160660  76.4620018  17.9593587
  83.0923367  77.1921730  17.6295209  83.5153198  76.5053034  18.9102566
  19.2290068   5.0368065  40.1927423  20.0976253   5.4130602  40.0507402
  18.8367999   5.0036269  39.3202138   9.1808504  64.8417234  33.4482718
   9.1047466  63.9087963  33.6484861   9.6015596  65.2189589  34.2208862
  39.3496299   3.6576116  47.9016161  39.4348168   4.4826475  47.4238205
  38.4231496   3.4301159  47.8234339  16.2680328  57.4595499  42.6388550
  15.7642174  57.3634672  41.8306637  16.3150072  56.5737486  42.9985523
  70.2204561  39.0701008  37.6405573  70.9264898  39.5655942  38.0555677
  69.4664431  39.6591353  37.6676297  20.4552507  62.8688335  14.8698807
  20.0161338  63.1881571  14.0815651  20.4743767  63.6250687  15.4563761
   4.6391729  80.3488827  26.1109090   5.1068097  80.3306580  25.2759147
   4.0194824  81.0730457  26.0226154  10.0304174   8.6582094  18.5111701
  10.2722323   8.7956375  17.5952709   9.9207187   9.5408386  18.8649559
  29.8401260  75.4320097  27.6575232  28.9025760  75.2721453  27.7655673
  30.2317142  75.1212502  28.4738064   5.2687067  71.8595934  24.3415642
   5.3553730  70.9069347  24.3756866   4.4882005  72.0101404  23.8082957
  21.8961048  43.4157896  22.1898341  21.3483310  43.6653757  21.4456010
  22.7634859  43.2722282  21.8113256   0.6762446  68.2677555  42.9058695
   0.6023472  69.2129230  43.0378628   1.6105005  68.0844212  43.0047989
  24.5887780  46.8055820  41.7618942  24.8072767  47.3684740  42.5046206
  24.7778630  47.3413515  40.9915495  79.2420673  80.7595253   4.6901408
  79.5797634  80.8817482   5.5774152  79.6330738  81.4722252   4.1847646
   9.2274982  56.5748405  54.5890236   9.1925949  57.0150805  53.7397861
   8.3102232  56.4355993  54.8245001  81.7403603  45.1726866  46.5506077
  81.5533924  44.5928049  47.2888565  81.4964485  44.6630287  45.7779598
  85.2820969  57.7874947  31.1899996  85.6820679  57.4563217  31.9941044
  85.8714867  57.4992704  30.4930186  50.7205629   0.5674158  39.4235992
  50.7480049  -0.0077342  38.6589527  51.5985346   0.9458622  39.4702721
  10.7563651  64.1685724  24.5026541  10.1253092  64.8393393  24.2417502
  11.5941584  64.6299362  24.5411086   8.5003740  70.9855175  22.1484995
   8.1089723  71.8267393  21.9131780   8.8934505  71.1363459  23.0081367
  42.7996063   1.9700518  34.2516017  43.3601952   2.7386218  34.3577480
  42.6486731   1.6585904  35.1440382  59.4192457  63.8159990  32.1695971
  59.6427536  64.3490601  31.4066291  59.7394657  62.9405308  31.9522333
   3.3045307  71.7792702  26.6139936   3.4477413  72.6678228  26.9398761
   3.9276662  71.6850567  25.8935380  84.6140957  61.1880302  35.9287906
  84.7618675  60.2690601  36.1521459  83.7668419  61.1930180  35.4834032
  47.8816223   0.5791542  34.7565365  48.4227943   1.2433469  35.1833963
  47.1916676   0.3878549  35.3918338  74.3027639  68.3917522  21.4562011
  74.7678614  69.2177343  21.5891314  74.6443844  67.8122377  22.1371484
   5.9423304  48.4277105  15.4477334   5.0135630  48.6545467  15.4011714
   5.9505892  47.4859571  15.6187916   0.6443139  60.1172400  47.0690298
  -0.3121100  60.1557684  47.0696545   0.9209397  61.0331821  47.0965147
   7.0649487  40.6204510  10.5256402   6.1153960  40.5734730  10.6368816
   7.3423254  41.3133192  11.1249948  18.5900164  80.0623608  16.8755591
  18.4559596  79.1983366  16.4860380  17.9238617  80.1223564  17.5602984
   4.0873393  77.4720621   5.5062312   3.6009657  76.6502428   5.5716884
   3.6721411  78.0478954   6.1483055  53.4764051   9.7531140  30.6138277
  53.7202740  10.5949068  30.9987235  52.7663851   9.4322371  31.1698318
  14.4903398  53.3871508  25.4757524  13.9697981  52.6062632  25.2873826
  15.3121114  53.0474758  25.8300734  84.6637821  58.1689215  60.4947042
  85.5933857  57.9767323  60.3717375  84.2919540  58.1270313  59.6136713
  66.7335606  77.3117542   3.2574248  67.5485039  77.4374390   3.7435374
  66.4492512  76.4280796   3.4909081   4.5194817  75.7118034  42.2397661
   4.6961719  75.5187750  41.3190317   5.3836083  75.7281446  42.6511669
  10.4708827  65.3323412  39.4560289  11.3964748  65.1231337  39.3305492
  10.1187110  64.5824862  39.9355364  29.4519281   1.0654649  43.9797068
  30.0468206   1.7709199  43.7254047  28.7972140   1.0410310  43.2818651
  14.7735953  65.9028339  32.7005100  14.5881677  65.8102369  31.7660189
  15.1704752  65.0682211  32.9497886   3.6624166  64.0071106  22.5253415
   3.7158817  64.9450207  22.7089119   2.7392557  63.7899065  22.6550674
  57.2730303  10.8329618  36.7718911  57.9676104  10.2903390  37.1451926
  57.1847296  10.5224967  35.8707547   4.4878829  65.2760124  14.0335453
   4.9486896  65.0889540  13.2156837   5.1698035  65.2472496  14.7046554
  81.1364365  54.2479324  51.5058661  81.2291145  53.3395195  51.2187529
  81.9535542  54.6683550  51.2379313  71.2890673  69.1634989  52.2841120
  71.8429327  68.3845520  52.3361254  71.5921688  69.6209669  51.4998341
  42.6007366   6.5062934  19.0188122  41.7153692   6.8649524  19.0798438
  43.0991554   6.9847119  19.6813262  21.6513538  56.5952444  17.4276400
  22.1761632  55.7984543  17.5046599  21.7217422  56.8401527  16.5049815
   1.2623388  47.8155470  48.4931421   1.1491349  47.1042967  49.1236496
   1.3954927  48.5949373  49.0326357   4.8737180  61.8710709  44.1434956
   4.6917564  61.1885309  44.7894526   4.3668979  61.6133308  43.3734703
  14.1938126  68.2223034  21.1964250  13.3888412  68.5725117  21.5780091
  14.1431844  68.4600544  20.2706051   5.6192321  72.5458813  58.8089514
   4.9473572  73.0591774  58.3602428   6.3147151  72.4418926  58.1595516
  20.1182842   2.3746093  40.7311535  19.7225344   3.2456565  40.7012987
  20.5653000   2.2856553  39.8894358  75.4830503  79.9436378  29.3635631
  76.3167620  79.4953680  29.5057106  74.9082375  79.6034288  30.0491881
  17.3137486   0.6318928  38.8229513  17.4751043  -0.1035574  39.4139743
  17.3351467   1.4033538  39.3891859  24.9951816  11.8436623  19.6982348
  25.1296163  12.4604154  18.9786685  24.9186254  12.3961782  20.4761147
  55.7117367  75.5011320  25.3958440  55.4333353  75.2514887  24.5147061
  55.5429554  76.4421654  25.4427457  20.9500074  65.2249622  16.1493635
  20.6301951  66.0498476  15.7839656  21.5863681  65.4882383  16.8141675
  16.6647625  64.7673464  49.1357422  16.9982159  63.9691782  48.7259054
  17.0077097  64.7392082  50.0289536  78.4573746   0.3299975  47.7381420
  77.5300932   0.1193203  47.6286077  78.8010597  -0.3778631  48.2831573
   6.4695042  74.7576284  32.9999924   6.6553926  74.7811317  33.9386749
   6.9214892  75.5240393  32.6470566  12.4269974   3.2443652  63.2393408
  12.5057650   2.5613645  62.5733566  11.5515578   3.1212336  63.6063242
  14.5893586  60.7063913  36.1888361  14.9744284  60.3111839  36.9709897
  14.7060084  61.6481543  36.3141465  29.3961573  70.0765419  16.1298478
  29.3428469  69.5386553  16.9198275  29.9829245  70.7943392  16.3679719
  56.8271971  20.2118874  16.5357244  57.0158863  19.3303943  16.8575895
  55.8716774  20.2685285  16.5387249  21.7231727   0.9427398  53.3922625
  21.6356206   1.8821132  53.2305717  21.6006064   0.8498790  54.3370295
  20.6666303  63.2272339  45.2771282  20.8843875  63.4368086  44.3688917
  20.5306816  62.2797394  45.2783251  19.0455461  72.7372313   9.2504764
  18.1232727  72.6178122   9.0238011  19.5139432  72.1331310   8.6743712
  76.3627625  75.0516748  28.2835340  76.3042116  74.7724152  29.1972160
  77.2868204  74.9431610  28.0586648   5.5765492  69.2748117  20.0758266
   5.1518869  70.1303196  20.1390195   6.4212292  69.4565439  19.6638560
  68.7667513  18.4829712  67.9311609  68.0596256  18.9280212  68.3982134
  69.5447159  18.6434245  68.4652567  30.2692676  76.5191031  31.2802339
  29.3298769  76.5616369  31.4590240  30.5185151  77.4239635  31.0922575
  55.3056955   6.1877155  14.8735392  54.7056580   6.6884857  14.3208957
  55.3556728   6.6884083  15.6878126  17.4443352  66.8092632  47.6594162
  16.6158736  67.2496843  47.8489256  17.3674369  65.9583521  48.0910015
  20.1504159  55.4863834  21.0369301  20.2593684  54.5686769  20.7875800
  20.4295015  55.9790373  20.2651548   8.6075997  63.8077974  49.0108204
   7.6730460  63.7027788  48.8324594   9.0256226  63.0974054  48.5241652
   4.9667194  28.0619955  24.4142485   5.3889769  28.8591290  24.7344208
   5.6458384  27.6189566  23.9055800  77.3589516  43.3424950  33.1577826
  77.4655390  44.1007757  33.7321353  78.0218315  42.7202320  33.4571338
  10.1168752  45.3503275   4.6076590   9.7234905  45.7136202   3.8142505
  10.9438348  44.9694490   4.3121940  43.1371880  72.5630331  53.4625483
  43.2254505  71.6108704  53.4197855  43.6295319  72.8143549  54.2439985
   0.2683101  50.6437635  49.2194366   0.9808957  50.9374380  48.6518049
  -0.4352095  51.2745571  49.0665102  11.9143331  36.5336132  14.6781397
  11.5095496  36.5012550  13.8113439  11.2608290  36.9608808  15.2318609
   8.6353300  56.6539553   0.1446921   8.8548992  57.4079981   0.6919009
   8.2405232  57.0343080  -0.6399672  13.5537064  41.1620426  17.3668551
  13.9907885  41.7556763  16.7562890  14.0894556  41.1964607  18.1593323
  31.2635589  11.6215432  67.9024649  31.5317941  10.8796966  68.4446335
  31.9932461  11.7517841  67.2968054   3.4704039  59.2646599   4.4543105
   2.9244727  59.7554207   5.0685936   2.8524750  58.7189484   3.9679039
  79.6603823  56.0852003  27.7348852  79.6578979  56.9234991  27.2728467
  78.9840555  56.1794186  28.4056592  46.6457081  80.1033115  66.7730045
  47.2307348  80.8598137  66.8140268  47.1257877  79.4048691  67.2179079
  34.4082332  53.4983206  14.3865740  33.5041094  53.5904646  14.0860748
  34.3511248  53.5595465  15.3401053  74.3267584  33.6867762  25.2360201
  74.5691872  32.7731800  25.3870249  73.3698559  33.6877251  25.2597833
  12.1566427  57.8301668  14.6015692  12.2157300  58.2858658  13.7618780
  11.7866111  58.4786844  15.2005100  79.1436577  41.8390274  28.5980296
  79.1168261  42.6849699  29.0451193  79.7821379  41.3262987  29.0936995
  81.8881512  55.2951717  21.2681532  81.3647842  56.0614014  21.0331821
  82.4159813  55.5847073  22.0123243  70.0764656  73.8877010  54.0555286
  69.8750162  74.6812153  53.5595608  69.2423010  73.4214735  54.1106558
   7.1954697  34.3984675   2.3880537   7.3099560  33.5652804   1.9309716
   8.0717188  34.6218324   2.7019447  75.2632427  52.7394676  25.7541084
  75.9741926  52.1864271  25.4301786  75.6995583  53.5324383  26.0656500
  36.0220480  14.1368902  51.5521812  35.5135465  13.9331663  52.3371363
  35.3668809  14.3862247  50.9003973   2.8183919  60.7468224  16.4126468
   3.6005795  60.2156878  16.2632811   3.1522191  61.5694284  16.7705715
  12.5505459  30.8267021  26.1875057  12.1455324  31.1334491  25.3762722
  12.5937593  29.8755765  26.0888958  12.1371686  27.5806665  35.8356786
  11.8205810  28.3061838  35.2975059  13.0863369  27.7008176  35.8652902
  77.5362158  66.4234400  35.8513784  78.3464479  66.5021515  35.3478312
  77.8045511  66.5606833  36.7598891  68.5929632  26.2546420  61.8015766
  67.8567028  26.5489674  61.2653637  69.3691301  26.5488362  61.3248777
   1.2408972  34.6571803  37.7275944   1.1123003  33.7799597  37.3667955
   1.1896451  35.2382016  36.9686341  16.7769718  56.0830545  27.3295689
  16.3381875  55.2978134  27.0023036  16.0861397  56.5770102  27.7711439
  30.8802938  72.2652578  33.1221533  31.1645675  72.5583458  33.9879012
  31.6092110  71.7369699  32.7968454  73.9889526  33.7102365  38.4179878
  74.1372490  34.0431547  39.3030882  73.5189342  34.4151592  37.9725695
   3.8842463  38.8888645   8.7219381   3.4228444  38.4918523   9.4606674
   4.7053269  39.2083192   9.0961134  84.1540337  23.4594941   8.0664128
  83.7561989  22.7053547   7.6314062  83.5378647  23.6868954   8.7627292
  69.7900200  38.4627914  25.2355433  68.8542318  38.3576941  25.4072618
  69.9491405  37.9416108  24.4485998  24.6721506  33.3508539  21.1443567
  24.4386792  34.2690396  21.2809658  24.8187566  33.0073214  22.0256758
  14.0873158  67.7949142  38.0291772  14.4552028  67.6082373  37.1654391
  13.2641315  67.3068666  38.0494714  82.1955299  31.9868064   8.6881351
  81.6962051  31.2700152   8.2968324  83.0702400  31.6228151   8.8245994
  19.5412612  16.8253720   5.8424020  18.8743806  17.2674239   6.3678455
  19.1299868  16.0031688   5.5758154  82.3593140  47.8579473  10.6687629
  82.6500607  46.9492626  10.5914354  81.5190125  47.8803396  10.2109146
  16.7604673  67.8825331  31.5774131  16.5499771  67.1066475  32.0969629
  16.3790643  67.7056551  30.7174826  16.1844194  54.7406483  20.1460886
  16.1801362  55.0329113  21.0575676  16.9809639  55.1213741  19.7762275
  19.7674036  52.4462891  29.3757868  20.4923606  52.0754671  28.8726354
  19.7666264  53.3753920  29.1455698   7.1008474  73.5234118  19.5988679
   7.5183314  73.2364941  20.4110360   6.8895727  74.4445848  19.7506154
  30.5387759  70.5359602  12.0995331  30.4583335  71.4668131  12.3075628
  30.7058954  70.5146885  11.1572742  26.2763214  41.2567806  21.1957002
  27.2250152  41.3840961  21.1959147  26.1620164  40.3077078  21.2450314
  25.4896688  33.2600141   1.4890239  26.3609791  33.1629038   1.1048104
  24.8894024  33.1562304   0.7506876  16.4260590  41.6976738  10.7942152
  16.1394560  40.8338356  10.4977798  15.7411492  42.2940731  10.4918325
   9.5913339  46.5758133  34.1750288   8.9377004  47.2746086  34.2011261
  10.1849246  46.7759323  34.8987913  10.6377208  36.0242343  28.0258536
  10.3116727  36.4347124  27.2249579  10.1459968  36.4478517  28.7294078
  28.6955214  66.6283321  20.8463740  29.5244908  67.1063471  20.8231640
  28.0636430  67.2250366  20.4452491  82.8054714  56.3884211  23.7626433
  83.5784245  56.8880081  23.4996009  83.0175400  56.0617971  24.6370411
   9.4819248  57.5602865  32.5693464   8.8128197  58.1725073  32.8754807
   9.0183789  56.9821882  31.9634080  77.0132875  49.8805761  21.4097118
  77.9047918  50.1175165  21.1541533  77.1193218  49.0990353  21.9520998
   1.2534654  38.2610345  25.3600359   1.3640478  37.5938153  24.6826744
   2.1137318  38.3262873  25.7746649  11.8052042  41.6483545  24.4500089
  12.1507668  40.8332682  24.8139477  12.0530605  42.3189116  25.0865245
  76.4768076  32.4847531  54.5309639  76.8488264  33.3092761  54.2179155
  76.6114664  31.8715978  53.8083744  14.9267006  73.0043650  19.6313906
  15.2961540  73.5776186  20.3030443  15.3758001  72.1683741  19.7565293
   6.0695672  79.7337532  28.4078383   5.5214661  79.8211336  27.6279783
   6.8086290  79.1966915  28.1222105  27.7983999  40.4725504  14.0713143
  27.0478082  40.2579069  14.6251833  27.4386740  40.5119371  13.1851554
  79.1457176  55.7793808  14.9394548  79.1427565  56.6896772  14.6435094
  79.6426201  55.3110552  14.2686391  13.4716380  29.1118765  45.5980587
  13.0748844  29.4405150  46.4047909  12.7955139  28.5587978  45.2066612
  10.4777789  73.1291151  13.4927654  10.2429867  73.9836359  13.1309724
  10.6431615  73.2989073  14.4201553  11.3361549  75.4461575   4.4033599
  12.0788169  75.1657772   3.8685021  10.9807026  76.2049723   3.9406654
  82.9399681  50.6601763  39.0707469  82.9876328  50.1491308  38.2627892
  82.3448944  50.1642752  39.6330595  81.5425777  72.0843363  24.5788431
  82.2609806  72.6963043  24.4187593  81.8056488  71.6066647  25.3655124
   9.9380851  50.1699209  32.8983212   9.3344074  50.7127333  32.3912096
   9.9024010  49.3122387  32.4748278  31.2901163  57.9593754  26.9812655
  30.7068205  57.2628689  27.2827172  30.9241414  58.2306671  26.1394238
  68.3733845  71.8124294  14.1447103  67.4600601  72.0625877  14.0050948
  68.8347197  72.6434469  14.2578781  19.4879520  32.6934171   9.5821208
  20.1474524  32.4796367   8.9221299  19.9280715  32.5415850  10.4184651
   1.0731737  77.6578093  39.5276189   1.1779969  78.1714678  38.7267470
   0.2677917  77.1594763  39.3888521   0.7529662  79.4085121  10.5018985
   0.2456787  80.1676750  10.2145541   1.5412322  79.7823334  10.8957589
  14.8634875  62.8288269  21.7805457  15.0726593  63.7047338  21.4561009
  15.4832089  62.2531271  21.3324952  13.0382121  81.0252094  13.5877800
  12.4274385  80.3865147  13.9555550  12.4893248  81.6050339  13.0598068
  23.8238168  54.1540909  28.2084298  24.0248799  53.3624554  27.7093077
  23.7545133  54.8428869  27.5473785  10.6500900  52.1404219  37.3364615
   9.8072147  52.1159649  37.7894473  10.6406486  52.9691267  36.8575168
  81.1439514  41.5822363   3.7369198  81.7117214  41.9772577   4.3986034
  80.3712940  41.2962294   4.2241824  17.7081335  21.6804576   6.1136037
  17.1529305  21.6445661   6.8925083  17.6651537  20.7969069   5.7479179
  21.2463498  59.6688938  39.9966645  22.0986652  59.9745941  40.3070498
  20.8858585  59.1757679  40.7336187  19.8704839  76.6724634  67.5318003
  19.3392265  76.3969851  68.2788706  19.3891668  76.3577604  66.7666054
  21.0341358  64.0180874   6.5735739  21.9818521  64.0695143   6.4493972
  20.9248686  63.8189793   7.5034392   5.2541000  48.2693481  38.1482267
   4.4312194  48.6038351  38.5049009   5.7517517  49.0538836  37.9178476
   0.0446151  68.8120937  28.8979220   0.4228728  69.3137026  28.1757450
  -0.1637877  67.9601669  28.5144925  13.2618654  30.4439521   8.2114708
  14.0949845  30.0981688   8.5317504  13.5052574  31.0284948   7.4936247
  84.7819424  76.4360666  30.7509947  84.3094444  76.3320923  31.5769267
  85.6592274  76.0991335  30.9328818  12.3246348  48.9147425  23.2554245
  11.9526792  48.3511448  23.9338350  12.6247168  48.3083916  22.5782824
  13.8513434  69.5247793  31.3706064  13.9302528  68.6173725  31.0762930
  14.1670072  69.5118189  32.2741652  27.8325701  34.7578740  21.7852235
  27.5180507  35.0220108  22.6498270  27.0363426  34.5772219  21.2856054
  22.3618007  45.9243679  27.6996446  21.5000772  45.6887817  27.3558950
  22.5419116  45.2633524  28.3681107  75.1719618  32.6479769  12.9761553
  75.5470848  32.9501271  13.8033295  74.2497635  32.8997207  13.0252540
  24.1980839  71.9071054  32.7754617  23.8009167  72.7780008  32.7698398
  24.5902014  71.8170738  31.9069171  19.1304302  58.4734964  21.5373421
  19.8131335  57.9685020  21.0956120  18.3565736  58.3648396  20.9845567
  17.0287454  65.4122210  25.0512600  16.4533782  65.0522661  25.7262516
  17.1828914  64.6810246  24.4530773   0.8505821  67.7684689   0.4071925
   0.7504664  68.7197685   0.3720030   1.7128155  67.6327467   0.8000858
  84.1453934  67.6002359   8.2262838  84.5574284  67.0271826   8.8728637
  83.6072636  67.0136261   7.6947355  13.0765665  54.7411394  21.4468074
  12.3033881  54.6314430  20.8932781  13.6888218  55.2408504  20.9067464
  17.5523162  57.2582102   9.7825593  18.4150434  57.5415897  10.0852597
  17.1610630  58.0452585   9.4034702  14.3256629  52.0761204   8.8730681
  15.2016306  52.0291185   8.4900504  13.8728988  51.3053751   8.5307395
  27.0494437  69.9565601  14.1331649  27.0950985  69.0004539  14.1331077
  27.6931930  70.2270508  14.7878826   5.1037174  51.6963148  22.6663017
   5.6525642  52.2727728  22.1346140   4.8584527  52.2295380  23.4224415
  24.4121504  64.7908926   1.9566922  23.6383867  65.0825691   2.4388233
  25.1395321  65.2612925   2.3639622  14.4374299  37.1332335  17.8397393
  15.3099215  37.1877551  17.4498451  14.5402873  36.5267467  18.5731065
  26.8960905  55.8069086  29.8646569  26.5071988  55.9731531  29.0059638
  26.9593024  54.8533106  29.9183941  50.2860403  35.9151506  12.5025868
  51.0883570  35.7093191  12.9823327  50.1744747  36.8590069  12.6162457
  60.2643728   6.5177375  29.5818210  60.6574821   6.6459531  28.7185383
  59.3404865   6.3446420  29.4009709   3.9192587  66.9121647  21.7955589
   3.0509093  67.1162510  21.4483571   4.4746318  67.6285267  21.4879680
   2.6497760  59.4223976  33.8642716   2.4526946  60.2220631  34.3520427
   2.5575101  59.6735477  32.9452276  39.2353535  10.4069686  20.2762914
  38.6330223  10.8983064  19.7177052  39.4132304  10.9939134  21.0111976
  42.8603125  57.0067930  23.9092302  42.6404428  56.6431332  23.0515337
  42.4886370  57.8888130  23.8978338  72.2300196  69.3361044   4.0302849
  72.4056673  69.2659378   4.9686113  72.2284651  68.4310865   3.7185702
  34.5273376  43.9005136  19.6441913  34.4384789  43.6343098  20.5593252
  35.1754594  44.6046972  19.6614444   3.0449378  59.7737455  22.4898434
   3.6986586  59.9939442  21.8262243   2.4132463  59.2210865  22.0296621
  84.7628689  25.0705147  27.8697395  84.4971085  25.7748818  28.4608960
  84.7078991  24.2771721  28.4024835  15.3820133  50.6588984  22.5546908
  14.8787618  50.0556707  23.1015778  14.7509766  50.9826183  21.9118619
  41.6986752  55.5182695  22.0208001  41.0562468  55.9695768  21.4732289
  41.2543440  54.7182274  22.3014021  30.6312871  55.6570768  14.1886199
  31.4752531  55.9279060  14.5500112  30.2218747  56.4724827  13.8992715
  22.6017928  75.9286833  12.7831030  22.5805092  76.3429308  11.9204450
  21.7436600  75.5137682  12.8707957  19.6422303  66.4934587  13.1173265
  19.1546440  66.9127798  12.4083400  19.1007793  65.7459784  13.3709717
   8.2172036  53.0191946  38.5944343   7.7013916  52.3929739  38.0864811
   7.8322971  52.9918051  39.4704080  22.4501920  52.0919895  30.8984184
  21.5554643  51.8813324  31.1654711  22.4771142  51.8824291  29.9648261
  81.5126324  45.2308989  31.0129237  81.6765594  45.4347658  31.9336820
  80.5867577  44.9899864  30.9821177   5.2131242  46.0818863  25.4168415
   4.2706102  45.9182692  25.3832412   5.5159009  45.9225273  24.5228815
  14.1418481  60.7360554  40.7055378  14.1936278  60.4091787  41.6037083
  14.7145736  61.5029526  40.6963682  84.5134735  60.5687523  44.3310881
  84.2350483  60.8535194  45.2015018  85.3173161  60.0730181  44.4870090
   2.0283882  51.5657425  37.8071594   1.2779665  51.9118261  38.2901955
   2.4666263  52.3415756  37.4574971   6.5407443  64.4076061  56.1030865
   5.9425420  65.0570917  56.4726210   7.1013254  64.1537809  56.8362665
   8.3134544  55.8773041  30.7463932   7.5515997  55.6820488  30.2007890
   9.0650100  55.6586885  30.1953912   8.6305141  68.0339479  44.9682999
   8.3622307  67.2898149  45.5073023   8.1287664  68.7726259  45.3130198
   2.8707534  55.0961924  14.2290163   1.9693059  55.0826740  14.5506394
   2.9439354  55.9252167  13.7561560  83.7702465  60.8712053  46.9394064
  82.9404926  60.4485941  46.7177439  83.5164928  61.7103958  47.3235941
  16.6124463  47.5740004  26.4026737  17.3082101  48.2139921  26.5528607
  15.8894336  47.8723049  26.9544888  21.8181086  77.3748779  15.1822519
  22.5958157  77.0222759  14.7497308  22.0952463  78.2286882  15.5145800
  27.4186754  62.6161957   2.3184280  28.0954385  62.8917789   2.9367143
  27.2031140  61.7216825   2.5822783  48.3175325  12.9392469  51.6637659
  47.9159260  12.4168491  52.3580599  48.4887266  13.7882328  52.0713758
  73.2849836  37.9765201  19.5311749  73.9090586  37.7312922  20.2142763
  72.6272678  37.2812533  19.5468450  32.8851748  50.3935575  19.5437992
  32.2161794  50.6864929  18.9250386  33.5476184  49.9702740  18.9976954
   7.5824457  40.3142118  48.9590693   7.6137042  39.3703222  49.1150284
   8.2013535  40.6818438  49.5899677  48.0983067  38.0116343  56.9807959
  48.3340836  38.4436584  57.8017664  47.4089622  38.5623765  56.6096973
  11.8616891  60.9937525  35.3473473  12.7843547  60.8292580  35.5419350
  11.5706909  61.5807581  36.0451818   6.4415884  53.1511927  20.8283091
   7.2542846  53.5433388  21.1476469   6.7261481  52.4941397  20.1930618
  23.8610911  63.0502748  12.3550057  23.8116574  63.7853384  11.7438841
  23.8213420  62.2727394  11.7981446  19.9263096  44.7371435  26.5232110
  20.7881403  44.6931076  26.1090374  19.3486774  44.2628241  25.9252167
   8.2317948  68.1320047  50.8853817   8.7296098  67.6263666  50.2429342
   7.6229221  67.5001144  51.2677717  28.0199456  61.5967989  45.2536201
  27.2808933  61.1726332  45.6896448  27.9438281  62.5195503  45.4964542
  17.2859645  51.5905666  50.9969521  17.5124693  51.1652327  50.1698971
  17.5771642  50.9755850  51.6701746  11.9772947  69.5564175  22.3832273
  12.4510086  69.9173546  23.1325936  11.8903422  70.2926016  21.7776680
  39.9136901  60.3229427  19.6716356  39.5597482  60.7904100  20.4282260
  39.7017908  60.8819628  18.9240897  16.8453825  60.3000593  54.6125698
  16.1061323  60.4339743  54.0194321  17.6106870  60.2698374  54.0384388
   9.0664965  42.1481180  65.3785801   9.8684853  42.3528385  65.8593464
   8.4170401  42.7603674  65.7243919  35.3332305   4.1227052  32.5089407
  34.4467330   3.7935901  32.6573849  35.2107763   5.0416183  32.2705388
  25.5760217  58.5827112  42.2466278  25.9495640  58.6997175  41.3731241
  25.6482291  57.6430464  42.4140978   7.7731937  76.1111069  50.4327869
   7.3874104  76.4034557  51.2585783   7.0221263  75.8819485  49.8854160
  80.3438663  38.6078382  22.8697944  81.2182617  38.8684845  22.5804448
  80.1143837  39.2469835  23.5443759  23.4048390  48.6439466  12.3931742
  23.2713008  48.6207056  11.4456201  22.7331686  48.0592012  12.7441227
  81.1519146  47.4221325  48.3441496  81.6027641  47.7496147  49.1224337
  81.7658329  46.7984676  47.9563665  14.1015255  56.2669992  11.1881340
  13.6613476  55.5748081  11.6814327  13.5246384  56.4338589  10.4427540
  18.9424038  18.6153507  21.0483861  18.2452941  19.1779518  20.7111192
  19.5329094  19.2138290  21.5059423  35.3708673  63.0559874  22.5054216
  35.1438618  62.1933174  22.1582913  34.6703792  63.2562542  23.1262612
  12.9095781  33.4660172   0.6588969  12.0490563  33.8719702   0.7634706
  12.7422774  32.5267243   0.7361794  20.3180623  59.4471312  49.4672203
  20.8434486  59.3423843  48.6739826  20.5735278  60.3025627  49.8124838
  14.6537173  51.1459494  11.4281166  14.8033953  51.8281412  12.0826674
  14.3198633  51.6161585  10.6641316  52.1884727  30.1252294  69.9017620
  53.0074263  30.1879120  69.4102097  52.0945597  29.1919780  70.0926876
  18.8483870  39.6528602  27.1216702  18.8919425  38.8971043  26.5358663
  18.3714688  40.3157711  26.6223431  23.1550217  52.3262882  52.1175623
  23.5251713  51.5682840  52.5699472  23.8016343  52.5437737  51.4461279
  82.4194908  55.4346037   9.9800801  83.3268356  55.2035856  10.1790404
  81.9585705  54.5960236   9.9560785   3.6246142  44.9391031  29.3945360
   2.7535886  45.1849413  29.7061610   3.4588918  44.3147087  28.6882067
  12.0589554  57.4820471  48.3462048  12.6731884  57.6305389  47.6272440
  11.8785429  56.5424585  48.3168888  71.9958782  11.4533234   0.5561837
  71.3975477  10.8128810   0.1713908  72.2541380  11.0671782   1.3930976
  76.6454887  41.5312719  25.4396343  76.3302231  41.6689539  24.5463920
  76.7321348  42.4131298  25.8016443  24.6608686  54.4538546  19.7101045
  23.8770270  54.0707350  20.1038623  24.6717167  55.3566933  20.0279140
  18.6753464  49.9483633  29.7019839  19.1805184  49.5585918  30.4155040
  19.0693784  50.8111095  29.5729876  14.8988438  52.9235220  47.5752401
  14.8434544  51.9731140  47.6746941  14.0403700  53.1794834  47.2379923
  18.0739534  40.6214094   4.6496326  17.6440883  40.6900406   3.7971437
  18.2796562  41.5254450   4.8876202   9.7615016  60.9307194  16.9728959
  10.0236857  61.2492752  17.8366172   9.4510013  60.0391150  17.1305549
  31.9950438  58.9198828  18.3235383  32.7229428  58.6541510  18.8854825
  31.9053602  58.2047987  17.6935816  35.6155586  11.0466039  34.1422200
  35.6564522  11.8414271  33.6104155  35.0446391  10.4575253  33.6489964
   7.8723437  71.9243622   2.4408917   7.0715111  71.5528011   2.0709728
   7.8852350  71.6126633   3.3458278  72.2281837  55.5486727  19.7719634
  71.9296122  55.0367498  19.0202856  72.6848698  56.2963295  19.3863773
  26.2698054  62.9885864  23.4420490  25.9401250  62.6266003  22.6195478
  26.5149879  63.8883924  23.2265043  66.7863417  63.4079599  20.0888562
  66.6066647  62.6850748  19.4877028  66.6009521  63.0494118  20.9567881
   0.4192420  69.2919159  32.6012588   0.2545426  69.3120432  31.6585493
   0.8417837  68.4464598  32.7525783  12.8175592  65.4014111  22.3884797
  13.3115375  64.6191978  22.1427870  13.4674788  65.9793806  22.7882147
   9.7421414  75.6081200  33.8742042   9.0447187  76.1152554  33.4586930
   9.2841274  75.0100183  34.4647384  27.9986382  47.2952557  39.7026372
  27.2304630  46.7251492  39.6692133  27.6528239  48.1728840  39.5401168
  11.8387473  56.0953903  26.7097783  10.9667706  56.4853621  26.6480517
  12.1186078  55.9893513  25.8005667  39.2160463  65.5538034   1.9840509
  39.9611592  64.9798775   1.8061399  38.6100483  65.0103760   2.4877241
  62.5615788  16.1069512   6.5303653  62.4765205  16.7681098   7.2172904
  63.5018349  15.9353876   6.4781773  28.0166841  80.7252407  12.8408682
  27.1654916  80.3077888  12.9728961  27.8202558  81.5161324  12.3387325
  68.6373568   3.4347555  24.2591882  68.5734987   2.4814522  24.2011619
  69.1972542   3.5914567  25.0195765   8.8181216  67.2433567  26.3691664
   9.3213052  68.0430651  26.5224719   8.7992495  66.8054295  27.2201037
  35.9847260  72.4939775  37.0155430  35.6802535  71.6693640  36.6366744
  36.6260195  72.8242922  36.3863635  23.8364244  61.0746050  28.8556862
  23.4285426  61.3229704  28.0261207  23.8733292  61.8887854  29.3576622
  48.5780764   4.9651650   4.2388442  48.3462667   5.4834241   3.4681922
  47.9974508   4.2051741   4.1998941  40.2048016  75.1684332   4.0530801
  40.1693201  74.3337917   4.5203549  39.7330594  75.0058508   3.2362217
  63.8172817   4.7039813  50.9087181  63.4274340   5.5426520  51.1554575
  63.2122946   4.3394586  50.2626944  58.9299917  16.2585783  13.3757257
  59.7875357  15.8769357  13.1880963  58.9416265  16.4217663  14.3188405
  19.4012487  70.6361866   7.5140041  20.2603626  70.3975534   7.8621554
  19.5333302  70.6916523   6.5675849  26.4511871  71.3958979   8.5550243
  26.1264062  70.5662060   8.9048201  27.1115327  71.6801596   9.1869831
   4.3349612  17.5876355  69.8853779   4.7538772  17.7009761  69.0322113
   5.0420028  17.3002732  70.4630852   9.1021925  70.4451323  28.7863517
   9.8142493  70.6373310  29.3964887   9.0428734  69.4897890  28.7807703
  39.0097570   4.3522096  11.0592222  38.8095379   4.5040739  10.1355982
  38.6737537   5.1281345  11.5078580  21.6949940  45.9978819   9.8437220
  22.6411867  46.0662556   9.7161448  21.3419843  45.8835983   8.9613646
  19.9270070  75.3673697  12.9855335  19.4328511  75.0552845  12.2274804
  19.3236077  75.2685452  13.7219954  36.8665886   7.8126442   0.9282007
  37.7209806   7.8878909   0.5032491  37.0543146   7.9077715   1.8619788
  13.5963523  67.1427536  29.7229624  13.6340475  66.2008715  29.8892951
  14.3143201  67.3069239  29.1115689  43.2378244  61.2209749  25.1325178
  42.5787449  61.0518122  24.4592953  43.9968824  60.7057381  24.8594117
   6.8199521  55.3815317  46.7748404   6.2930858  55.4806709  47.5678158
   7.6254719  55.8640909  46.9605923   1.1906724  61.4992476  38.7462020
   2.0441002  61.8718290  38.9677310   0.5827171  61.9116211  39.3598557
  53.2897139   3.4975845  33.0961490  52.4846935   2.9863220  33.0138206
  53.7178612   3.4089747  32.2446370   1.8187302  80.1795292  50.3901339
   1.0779522  80.3328133  50.9766340   2.0812619  79.2761707  50.5669117
  81.7667961   7.0125407  23.7099028  81.1811161   6.7333573  24.4136500
  82.5857735   6.5476412  23.8812852  14.6532571  60.6497669  27.8694987
  15.5256271  60.2858353  27.7186489  14.6529651  60.8955765  28.7945986
  43.8419056  16.2905037  20.0259376  43.7618732  17.1576536  20.4232764
  43.4328556  16.3826478  19.1654623  26.1853337  60.8752489  34.9040794
  25.7574320  60.8914614  34.0480018  26.7510271  60.1036596  34.8745155
  49.4935751  73.0153179  31.7907524  49.5569754  73.5362768  32.5912619
  50.4020929  72.8723717  31.5254331  85.7782650  36.0015488  35.7782412
  85.3815651  35.4691434  35.0887442  85.3077316  36.8341684  35.7385445
  10.7052445  66.2105799  20.4669905  11.2950671  65.9328747  21.1678624
  10.2136147  66.9407797  20.8429456  24.1064429  61.6652727  18.0956793
  23.6695671  62.2561264  17.4822748  24.2760825  60.8732176  17.5856757
   2.3743671  48.0474234  55.9073544   1.5894447  48.3324051  55.4394722
   3.0917084  48.2154322  55.2962685  30.6304288  74.5855284   0.9503040
  29.8636866  74.0367985   0.7852855  31.3301134  73.9646387   1.1532039
  14.9926770  66.5455961  23.6626458  15.6806362  66.2665033  24.2668414
  15.3985512  66.4941359  22.7972841  43.8917971   8.4485066   9.9170899
  44.4353390   8.9816791  10.4971945  43.7115288   9.0169400   9.1683447
  28.6473131  58.2354259  30.3312016  29.4057035  57.6584959  30.4218936
  27.9662728  57.6783180  29.9543166  11.5347219  72.4269009  10.2201998
  11.7265189  71.9016361  10.9970820  12.2487533  72.2281981   9.6144700
  31.2887883  45.9083652  22.0801711  31.7542553  46.6617203  21.7168093
  31.2501574  46.0815907  23.0207729   5.1644415  37.5946832  55.3121948
   4.4829684  36.9434738  55.4787779   4.7347596  38.2583594  54.7726202
  52.3441029   9.9471998   9.9226052  51.9476128   9.2490137   9.4014865
  51.7729139  10.7028258   9.7847557  45.9889174  60.4845524  22.1274495
  45.1786900  60.6973362  21.6643262  46.2740326  59.6556807  21.7428517
   5.5878526  67.0997381  43.9632702   5.5664694  66.2079334  44.3103456
   6.4242083  67.1569443  43.5012436  70.3544998  37.5134063   6.7560786
  69.7864437  37.0363283   7.3610091  70.0390530  38.4163785   6.7929995
   8.0694926  58.7568617  28.9794755   8.4695792  58.2946873  29.7160602
   7.1595395  58.8890743  29.2454410  13.9759159  56.7968941  30.4769182
  13.5189724  57.2949171  31.1547136  14.1554534  55.9488249  30.8828473
  14.4880199  65.4052210  11.7850304  13.8212180  65.1238585  12.4114847
  14.2868447  66.3261127  11.6185331  22.0428276  68.7613201  18.7967110
  22.0641184  67.8057051  18.7459803  21.4537501  68.9493179  19.5273817
  30.4878402  63.3815289  17.8840220  30.9600377  64.2027187  17.7465189
  30.0069618  63.5156155  18.7007296  51.8625689  24.3731999  68.4827328
  51.7960596  23.5199904  68.0539656  51.0124874  24.7854495  68.3289623
  31.9021893   7.8771049  11.2888360  32.4297190   7.6654792  10.5186689
  31.9578218   8.8298172  11.3628328   8.1755042  73.6519146  22.3203158
   7.5175875  73.7341595  23.0106878   8.4298831  74.5534086  22.1232581
  20.2750421  55.9749460  32.3086238  20.6678414  55.2249289  32.7551866
  19.3317771  55.8270407  32.3765278  29.5908356   1.9919576  18.9444876
  30.1166344   1.3043013  18.5359573  30.1224685   2.7832338  18.8579965
  31.9261098  64.1856003  21.9665480  32.6966977  64.7355556  22.1078897
  31.3784552  64.3381786  22.7366304  19.2448688  62.7807283  27.0602489
  19.2029953  63.6429882  26.6467452  18.4728074  62.3199034  26.7319274
  23.2478857  54.5441055  30.9408903  22.9908848  53.6231995  30.8948493
  23.4191442  54.7907019  30.0319958  11.5293050  68.4279871  28.2975054
  12.3323381  68.9345312  28.4190965  11.8007660  67.5173569  28.4128046
  33.5935926   2.0844811  18.6617386  33.3422112   2.8955057  19.1036415
  33.4230137   1.3977149  19.3063223  19.7918320  79.8604631  41.8104219
  20.7426476  79.8410320  41.9190693  19.4524300  79.9970198  42.6949501
   7.7791733  66.8166780  29.0417886   7.3989087  65.9772205  28.7830639
   8.1742346  66.6472340  29.8970366  43.2064629   1.5885910  31.5775418
  43.0969143   1.8299598  32.4973083  42.9596233   2.3758808  31.0922790
  47.1182537   8.5324579   9.0030861  47.0459938   7.8440797   9.6642560
  47.6280499   8.1343132   8.2975221   9.6703923  77.4661875  12.5716782
  10.3064048  77.0205307  12.0121157   9.9568754  78.3794785  12.5796378
   8.9108431  63.6650133  57.3821735   9.3926466  63.8685799  56.5805149
   8.5869193  62.7744389  57.2473335  82.9649353  54.2280912  34.5761776
  82.5358105  54.6125984  35.3405333  82.7721786  53.2925844  34.6386266
  69.5749712   6.6462523  18.7517571  69.6294451   7.5995076  18.8193452
  68.7525749   6.4218760  19.1871309  16.8630695  80.2176857  19.0827596
  16.0576761  79.7008038  19.1029882  16.5639055  81.1268139  19.0682697
   2.0737474  51.9771957  25.7283902   2.7578664  51.3263893  25.8854270
   1.7885394  52.2407675  26.6032743  30.0169659  57.7323246   5.8004266
  29.2621255  57.2460604   6.1320847  29.6615696  58.2758760   5.0972342
  30.5253649   8.3712304  22.9683375  30.0200367   8.0048752  22.2426248
  30.5476546   9.3121099  22.7937531  24.8562217  79.7221756  45.1485777
  24.9551320  80.2712250  44.3707657  24.7460294  78.8360500  44.8038054
  32.9156923  78.5740185  54.7959614  33.4275293  79.1350937  55.3785801
  32.8407454  79.0763044  53.9845896  25.6953597  80.5116749  23.5712290
  25.4836297  80.7222080  22.6617908  25.4023123  79.6072149  23.6821675
  16.6542041  64.6639061  13.6742973  17.5321198  64.3830395  13.4162033
  16.1583221  64.6823311  12.8557658  21.1337423  75.2177095  37.6817703
  21.1151385  75.7591057  36.8926072  20.5678487  74.4738293  37.4752951
  68.4926271  11.8900216  33.4376407  68.7383270  11.1873531  34.0394068
  67.6946020  11.5742409  33.0137634   4.2375818  61.1704493  48.5629320
   3.4518725  61.6759682  48.7711143   4.0967855  60.8675098  47.6659155
  52.5757504   5.9379721  30.0240254  52.4679661   6.5919757  30.7146001
  52.1239519   6.3118082  29.2674851  22.6683760  69.6839905  16.2955403
  22.5280738  69.4553852  17.2143912  22.0576119  69.1260624  15.8139646
  60.5620527   4.6706602  37.8289723  60.0628853   3.8695437  37.9879546
  60.5599213   4.7692171  36.8768620  19.0888751  74.4013214  26.7169785
  18.9883935  75.2681255  27.1104002  19.8914468  74.4648647  26.1992192
  15.3921163  67.2011232  35.2917337  16.0094690  66.7948580  35.9000540
  15.1312554  66.4909840  34.7053218  63.3874655  25.5199242  60.4432678
  62.9790115  25.1706529  59.6511793  62.7249050  26.0998845  60.8186340
  17.5529468  60.4786777  12.0440376  17.0221698  60.7254982  12.8013945
  16.9464219  60.5150080  11.3044178  38.5840392   3.3582625  15.6818914
  37.8176498   2.9599726  16.0944974  38.7842631   2.7833742  14.9432123
  41.3709259  59.2846060  23.9222550  40.6408024  58.9911175  24.4672441
  40.9557247  59.6365309  23.1348586   9.4540554  74.5065022  28.4558535
  10.3428316  74.2094994  28.6510444   8.8879138  73.8396740  28.8445091
   7.9756570  59.2307329  18.6533952   7.7931893  60.1483583  18.8556337
   7.5335836  58.7402534  19.3463862  29.6954799  51.9464922  18.9477503
  29.2494202  52.7921772  18.9932871  29.0227890  51.3078547  19.1841018
  14.2185187  53.5282660  18.5135424  14.9488568  54.0023041  18.9111888
  14.0601432  52.7925062  19.1049898  52.5866222   1.2041436   0.5948099
  52.4298525   0.5138984  -0.0495637  52.5759172   2.0143878   0.0852793
  13.3167005  77.6454926  36.7184615  12.7267849  77.0145416  36.3059950
  13.3593071  77.3703337  37.6342702  19.8803270  52.0636749  22.7582407
  20.2266240  52.9115105  22.4798751  19.2174506  51.8485832  22.1020675
  17.2765470  54.8915672  22.8088093  17.6510298  55.7694149  22.7354836
  17.2633898  54.7145844  23.7494135  25.0422621  63.5760736  35.9063721
  25.7994151  63.0888271  36.2312484  25.0779963  63.4683990  34.9559188
  45.3043985  21.4805245  17.9295480  44.4090271  21.1644363  18.0505002
  45.8153534  21.0106778  18.5886419  42.2096872   4.3226519  13.2988060
  42.6213884   4.7114748  12.5270844  42.4760485   3.4035692  13.2749116
  33.4544349  54.5400858  57.7995968  33.4152031  54.3814945  56.8564415
  32.5395083  54.6330976  58.0650949   6.6410995  80.5096149  32.9913664
   6.9582963  81.0031700  33.7476921   6.0240436  79.8772955  33.3596611
  77.7525616  53.7168503  67.7408504  77.5070715  54.5244741  67.2895050
  78.1332350  53.1662893  67.0565987  16.3627803  67.0128632  14.9495745
  16.4273870  66.1596680  14.5204806  15.7393622  66.8756437  15.6628430
  15.6335890  57.8908062  24.2459178  14.9594605  58.3209276  24.7720146
  15.1952934  57.6788998  23.4217691  79.6754503  53.6046600   6.1796796
  79.7053003  54.2488670   5.4723334  79.0928507  53.9926624   6.8325722
  39.0326548  54.5420599  24.3855715  39.0950227  55.4728842  24.1713142
  38.9316893  54.1075850  23.5386539   0.3745012  24.7633553  69.3478775
  -0.5800004  24.7055292  69.3052769   0.6828531  24.0199685  68.8296795
   7.3577136  23.2835507  67.1567392   7.9918784  23.8790345  66.7574072
   7.8497630  22.8362513  67.8452444  59.3534803  61.4014578  14.1567254
  59.4419861  61.0631084  15.0477445  58.4566355  61.7333031  14.1145217
  48.2378912  24.8504233   0.9216680  47.8773499  25.3684211   0.2020017
  47.5157976  24.2844748   1.1946373  22.0803261  53.0276871  20.7528663
  21.6490436  52.2734880  20.3511047  22.4558210  52.6849174  21.5638781
  37.6037812  77.1287727  47.1873999  37.0288444  77.1719408  46.4233208
  38.4874272  77.2012568  46.8266392  20.6832051  73.7040567  32.5268102
  20.5700636  72.7550411  32.4738359  21.6205096  73.8415384  32.3897266
   5.7059991  69.9248409  40.4101467   5.8721805  68.9899158  40.2895880
   5.1752985  70.1733303  39.6532845  76.2310171  19.0544462  53.3481693
  75.6149960  18.3340085  53.4812927  77.0930719  18.6387575  53.3654642
  11.9295859  27.4810266  18.9061737  12.1169186  28.1083488  18.2078874
  11.6189849  26.6994905  18.4490526  46.5147734  67.8653240  33.5869455
  47.4445486  67.6386213  33.5680294  46.3257122  68.1751060  32.7012134
  33.1713772  66.6792631  21.6417646  34.0484834  66.3734961  21.4106274
  33.0919266  67.5289106  21.2081623  16.0191188  81.1623098  10.7736707
  16.9281993  80.8666540  10.8225596  15.6918417  80.7956058   9.9523002
  77.9444695  71.5490532  25.5354476  77.4262571  71.5499067  26.3402390
  78.8113928  71.8492603  25.8084822  26.5688419   1.2379126  14.2458916
  26.1470580   2.0962429  14.2058897  27.1279955   1.2817293  15.0215578
  22.5942063  58.8646269  37.6590133  23.0031586  59.7280121  37.5993800
  21.9326520  58.9597750  38.3442354  13.8392437  34.0044904  33.7434363
  13.2062888  33.5679507  33.1733179  14.5592988  33.3791089  33.8249993
  21.3191819  31.6109896  70.0437784  21.8478632  32.3849416  70.2380180
  21.0715294  31.7145228  69.1249847  25.3131628  71.3397741  26.0570693
  24.9223185  70.6392527  26.5793157  24.8379111  71.3130903  25.2266145
   6.2343901  51.8505573   3.9919978   5.3141612  51.6258192   4.1294873
   6.7142415  51.2629080   4.5756471  58.0297470   2.6639730  28.8646388
  57.6137114   1.9937715  28.3224463  57.3021269   3.0950817  29.3129086
   3.1362781  36.3721824  64.3793535   2.2711551  36.0296559  64.6040058
   2.9695293  37.2655511  64.0788221  22.5475669  71.1608315  10.0304091
  22.8974390  71.1805058  10.9211588  23.1059551  71.7644024   9.5403707
  11.6719306  42.1316433  54.0824127  12.0251071  41.9787312  54.9588346
  12.0770991  42.9518127  53.8006449  26.9009805  75.1031065  33.4657717
  26.1791992  74.9381876  34.0724564  27.6892924  75.0124788  34.0011048
  66.6199017  19.3763089  21.7136121  66.6823101  18.4708393  21.4095402
  67.5043631  19.7263598  21.6067243  68.4345198  31.1158323  63.3148861
  68.6427498  30.5184317  62.5965643  69.2559099  31.5749168  63.4903526
  81.4185333  70.6541491  28.3943677  82.1866989  70.5514574  28.9561605
  81.6179657  70.1310205  27.6179695   2.4437289   0.1627749  20.3415704
   2.9963240   0.3921860  19.5944154   2.8824461   0.5588305  21.0944963
   5.1828980  48.3659029  69.1297054   5.2583796  49.3084574  69.2784214
   4.4358706  48.2758474  68.5380363  38.9610195  68.1501484   2.4741316
  39.5068550  68.2485819   1.6939992  39.0285611  67.2219849   2.6981542
  21.4254498  79.2348480   8.0111301  21.0472035  80.1138020   7.9865575
  22.3172665  79.3486118   7.6825637  46.5084171  24.6840382   4.7622031
  46.8964481  23.9949322   4.2229468  47.1302700  24.8054290   5.4796910
  26.4792609   2.8602073   1.9802588  26.2773228   2.5045276   1.1148426
  25.6831598   3.3236080   2.2404814  76.9229984   3.3545864  25.5192542
  77.2607040   3.2389536  24.6310997  77.2747087   4.1990101  25.8011770
  37.9048276   4.3657666  24.9807382  37.8427958   3.5456789  24.4910049
  38.8241816   4.4199631  25.2416658  58.6142683  49.2348719  69.4023657
  59.1407251  49.2079639  70.2013302  57.7086020  49.2354250  69.7122049
  67.2783136  23.5282922  24.3914700  66.6917706  22.8931904  24.8023796
  68.1508255  23.1471610  24.4899035  25.7391477  79.4942713  13.3269608
  25.1538444  78.7546825  13.4902406  25.4397202  80.1744175  13.9302683
  32.3003745   7.0858860  26.0419989  32.8806543   6.4200789  26.4110613
  32.7510667   7.3853528  25.2524257  65.3340340   7.8626728  20.3154945
  66.0451984   8.0679786  20.9223962  64.8043776   7.2132736  20.7780671
  61.0580254  10.9272861  22.4509096  60.6958151  11.0256147  21.5703583
  61.0723352  11.8165922  22.8046894  57.0686102   9.3259120  15.2820218
  57.1041775  10.1242113  15.8089805  56.9254732   8.6251700  15.9181845
  70.5284643  64.5100117  69.6508312  69.6812677  64.7049904  69.2502356
  71.0083294  65.3372765  69.6109343  83.4038544  78.0965328  12.4044871
  83.7264061  77.5049782  11.7245960  84.1411877  78.1935215  13.0071127
  82.9070091  20.0726986  32.6779771  83.0167580  19.4143403  31.9918633
  82.5207043  20.8245707  32.2288775  31.2873602  75.8602571  34.4532466
  31.6687799  76.1551332  35.2801681  31.1335993  76.6658401  33.9596581
  54.4429588   5.8073521  31.9841743  53.8756180   5.4624170  31.2946987
  53.9140654   6.4779282  32.4164152  38.5580373  13.5174716   9.6623260
  37.8209901  12.9161310   9.5556480  38.6220336  13.9695275   8.8210279
  35.8288646  27.3984098   8.4571016  35.5713344  28.3162975   8.5430861
  36.2370634  27.1845770   9.2960775  50.3422022  17.6614845  28.7954831
  49.4000053  17.7579200  28.6569071  50.4825306  17.9507732  29.6970654
  70.9749651  75.8858347  33.1090784  70.9199762  76.8055487  32.8496027
  70.2596855  75.4603863  32.6362133  65.6636715  36.1467290  54.1680193
  65.7734346  36.7787170  53.4575415  64.9293041  36.4864349  54.6794271
  17.0731807   0.0135288   1.1624270  16.8181193   0.3958086   2.0020920
  16.6380322   0.5603001   0.5082727  40.9512615  10.1067877  14.7507286
  40.0741291  10.4789174  14.8423254  40.8021879   9.2202342  14.4220483
  49.3922663   0.4578034  26.3996863  50.1957798   0.6541722  25.9179807
  49.0152311   1.3153702  26.5962958   2.4469769  77.4581528   2.2159347
   2.9267597  78.2743597   2.0750804   3.0472535  76.7734766   1.9207714
  53.7251425  11.9352913  33.5976744  52.7933931  12.0731318  33.7681746
  54.1555071  12.6943111  33.9912558  45.8999300  64.8933792  19.4210458
  45.7599449  65.0445557  20.3558087  45.2562666  65.4545832  18.9886332
  43.7134743  34.5496225  13.5406876  43.4693623  34.3603444  14.4466758
  42.9094410  34.4071341  13.0412281  47.5835323   9.6905607   5.2145225
  47.4812412  10.3536332   5.8972394  46.6932583   9.5290840   4.9021557
  30.2432704  73.7246847  25.6691051  29.9736238  74.4813967  26.1895943
  29.4738412  73.5103846  25.1415753  57.0992279   3.5145321  14.5680428
  56.6602802   4.3608588  14.4826794  57.1386242   3.3592620  15.5117440
  38.4459996  62.1826506   1.1887170  38.0949759  62.7149677   1.9026150
  39.3950367  62.2878313   1.2557928  39.4500923  56.9348145   9.8307896
  39.0041900  57.6085806   9.3175215  38.7455869  56.4796972  10.2920628
  18.4162259  51.7443323  46.0145044  18.2432532  51.8239260  45.0764322
  17.9162943  52.4575090  46.4115906  38.7589455  69.5280790  32.2496486
  37.9615617  70.0307322  32.4162364  38.4995842  68.8764143  31.5982676
  78.5330772  53.7358665  63.7754440  78.5520315  54.6175718  64.1475534
  78.7425900  53.1607580  64.5113707  23.5016394  27.6476312  59.0267611
  23.4025431  26.8302131  58.5386658  22.8749204  28.2464957  58.6207819
  24.2332268  68.8173628   2.4217907  24.6190405  68.1859016   3.0289462
  23.9682031  68.2923508   1.6665718  51.3008356  17.1967077  19.7092915
  51.9363356  17.6336884  19.1423500  50.9738159  17.8905451  20.2818990
   9.8853594  58.0836391  26.6579008   9.4348884  58.4234571  27.4310970
   9.3659359  58.4011316  25.9192324  15.2189386  50.4448223  16.0338867
  14.3420339  50.0617027  16.0118032  15.0671518  51.3852310  16.1278212
  13.7226868  32.9603958  24.3846583  14.2365444  32.3630118  24.9280858
  12.9209530  33.1102753  24.8856473  19.8033714  32.6237154  23.8674521
  19.6788037  31.6764808  23.9262724  20.0301862  32.7789855  22.9505658
   6.3149989  64.7850513  32.9115081   7.2604299  64.6543169  32.8387022
   6.1441070  65.5821991  32.4099255  73.4789801  67.0246458  52.7837420
  73.7264776  66.9057894  51.8667650  74.2887878  66.8751907  53.2717037
  38.8156486  70.5885983  63.6389875  38.5726309  71.4616442  63.3308315
  39.6532726  70.7163382  64.0842962   4.4169024  34.1324687   2.5289127
   4.2326495  33.5631442   1.7818174   5.3418303  33.9808488   2.7232125
  85.0606346  32.2423863  22.5967050  85.3937244  31.3484335  22.6749873
  84.8338509  32.3332977  21.6712141   4.3634236  28.9063096  41.4010000
   4.6068957  29.6222138  41.9878864   5.1869249  28.6424923  40.9905386
  65.5825996  53.5368824   2.3110035  65.6165266  52.8263760   1.6704868
  64.6656466  53.8114834   2.3157513   8.8984793  37.2370362   6.6583490
   8.2997829  37.6175046   7.3010290   8.4764677  37.3964500   5.8141184
  65.4266405  15.7650983  48.1132936  64.9268389  16.1526060  47.3947763
  65.3466606  14.8207867  47.9787207  15.5605268  20.9616947  13.1152093
  16.0764790  21.7635441  13.0311620  15.6617713  20.7067561  14.0322626
  37.9591966  64.4719648  64.6258593  37.4384689  63.8259983  64.1485739
  37.9696822  64.1519260  65.5279112   8.3422840  21.5986681  21.9667554
   7.8691137  20.9153748  22.4415731   8.6437172  22.1991825  22.6484823
  22.3300862  25.7698321  11.0083103  21.4677215  25.3718519  11.1273491
  22.4157977  26.3794136  11.7413151  10.9875512  53.8691759  19.3458807
  11.3635218  53.1498957  18.8384223  10.4663289  54.3623924  18.7124014
  54.6153259  67.5662708  60.4024744  54.2513704  68.3306217  59.9557734
  54.4079924  66.8307447  59.8260689  17.5257969  19.3354809   4.6067250
  16.8505907  18.6803746   4.7832581  18.0683362  18.9420807   3.9232641
  48.9669228  77.4174976  60.8335114  49.8783875  77.6944113  60.7398081
  48.4709406  78.0436373  60.3060865   9.8381168  30.3987360   6.8360656
  10.0520551  31.1754823   6.3192248   8.8814533  30.3868771   6.8658298
  23.1011271  27.7315187  13.2394624  23.1191111  27.3766661  14.1282761
  22.9317474  28.6661148  13.3580792  15.0995660  23.6462665   6.6755217
  14.9246716  24.5546389   6.4295483  15.4592693  23.7028456   7.5607586
   7.9818505  38.0666852   4.4013423   7.0486218  38.0750394   4.6140546
   8.1691259  38.9590764   4.1101360  29.9906778  63.9266968  29.2677784
  29.7933054  63.5114241  30.1073146  30.2964878  63.2098722  28.7120175
  13.9289856  44.2408371  11.9614065  13.0778801  44.5655060  12.2554135
  14.5640016  44.8282003  12.3712718  82.2072887   2.5101316  45.8225584
  81.7302990   1.7034417  45.6277227  82.9719353   2.2218186  46.3209867
   2.9006210  52.5945568  20.8627892   3.8202751  52.3927879  21.0352945
   2.7622542  53.4491968  21.2710571  32.2323704  54.2317390  63.3938551
  33.1712222  54.3099928  63.2245493  32.1664143  53.5584211  64.0709972
  86.0667610  47.2379303  20.2033496  86.2010193  48.0936146  19.7959065
  85.6907272  46.6979837  19.5081604  13.3690655  33.2479358  27.6364374
  13.3904362  32.3329520  27.3561120  12.6630354  33.6395431  27.1222425
  83.7187958  54.6439362  12.8369057  83.5096550  53.7119389  12.7746356
  84.3618011  54.7919655  12.1434677   4.5949596   7.2255713  62.1764040
   4.7852981   8.0922538  62.5353861   4.5678437   6.6503143  62.9409838
  21.8051839  43.1256294  10.7833219  22.2420716  42.9975080   9.9413317
  20.8952546  43.3152437  10.5546141  22.2295594  28.4803081   8.8146544
  22.2116089  28.9341974   7.9721016  22.5047970  29.1494298   9.4413525
  81.9936848  53.5118580   7.6169991  81.2174129  53.8166571   7.1471691
  81.6916370  53.3744097   8.5148358  31.5873098  11.9589031  25.2533960
  32.0939708  11.7291284  26.0323238  31.2164688  12.8182912  25.4537916
  65.2930355  52.2376060   6.5580207  65.3888607  51.6391039   5.8171815
  64.6454620  52.8789806   6.2655753   9.2408454  35.5713773   3.5395029
   8.8644612  36.4514232   3.5302556  10.1680589  35.7094574   3.7329996
   0.5381123  17.2050893  25.1973224   0.9810470  17.1196902  24.3530774
  -0.1547826  16.5451705  25.1721048  50.1763773  34.2837906  17.1693301
  49.7117662  34.6067977  16.3972974  50.9445333  34.8503828  17.2410643
   5.6079650  38.3180141   6.1880308   5.2640653  37.5687361   6.6743910
   6.1556989  38.7830877   6.8204290  59.8100996   1.2914014  63.0217457
  60.3860807   1.0704957  63.7536478  58.9406633   1.3657559  63.4151697
  20.6326413  62.8701162  29.3703175  20.0894260  62.7548218  28.5906672
  20.7424188  61.9853640  29.7187281  14.5642471  31.7216539   6.2755680
  15.2471745  32.3787117   6.4101768  14.4277573  31.7086720   5.3282386
  14.7547174  53.1412172  13.3205044  14.1872084  53.9073086  13.2352674
  14.9079657  53.0602217  14.2618799  35.2716637  39.1247749   6.1289948
  35.5730033  38.4107947   6.6908294  35.9365082  39.8059607   6.2299997
  72.0392895  79.8299265  47.3954153  72.8892374  79.6280813  47.7866650
  72.0428467  79.3620682  46.5603495  29.0576601  25.7830024  14.1482961
  29.7299266  25.1299191  14.3426526  29.1889071  26.4651346  14.8068547
  35.2169394  47.5601482   5.0985312  35.2295732  48.2891893   4.4783899
  36.1330986  47.4439716   5.3503036  74.3398857  52.1085453  17.3124313
  74.6103811  52.9462576  17.6883316  73.5720062  52.3209000  16.7818654
  12.1000564  53.4500027  27.4863744  11.9563925  54.3887854  27.3668933
  12.9848373  53.2988739  27.1538758  15.5210638  72.3261499   3.8298663
  15.3435278  73.0022287   4.4838053  14.9211264  72.5248671   3.1109646
  13.0600691  56.7464590  18.8175070  13.2542288  56.7768145  17.8806973
  12.1804929  56.3722324  18.8678086  52.3052645  68.6827135  69.1264248
  52.5988483  68.3834457  68.2659149  51.5394068  68.1419992  69.3196058
  36.9570088  53.9926624  17.8253055  37.4524784  53.7968254  17.0300758
  36.0430551  54.0050650  17.5411069   4.5651850  16.2630510   7.2975445
   4.6088251  17.0509398   7.8393549   4.7651666  15.5466604   7.9000580
  11.1537194  30.3696871   3.9942968  10.5713058  29.7732997   4.4647756
  10.8932650  31.2419295   4.2902514   5.2292132  32.8122520  13.8347018
   4.2839420  32.9467273  13.9026034   5.4041404  32.8122020  12.8936219
  30.8442044  41.7777777   3.7031168  30.1522255  42.4120665   3.8903925
  30.4635143  41.1950111   3.0460829  47.3466206  44.1431952   3.7751094
  47.0842505  43.4695482   4.4024825  46.8167591  43.9660454   2.9978740
  12.2361398  39.1751599  12.4667203  12.1476603  40.0402594  12.0667064
  13.0115187  39.2468500  13.0233872  84.0385056  27.6601028  67.0577002
  84.7905636  27.1007109  66.8634939  83.3679008  27.3854852  66.4323092
  22.6821589  45.3408813  17.1610594  23.0683875  44.4825125  16.9870937
  22.9699850  45.5577564  18.0478251  14.2375219  44.5518637  34.5104837
  13.9749670  45.2548265  33.9162254  13.4246469  44.2849684  34.9397063
  21.2796640  72.9148579  51.4369297  21.8170691  73.6896086  51.2720442
  20.6708503  73.1873512  52.1234608   0.2184676  40.1522684  33.5428333
  -0.2595818  40.7906580  33.0135298   1.1119677  40.4935360  33.5805893
  27.1991968  75.4325247  24.5776772  27.7829051  76.1776876  24.7199726
  27.1575522  74.9950933  25.4280591   2.3384745  46.5899467  17.5015903
   2.7602717  47.0746326  18.2110965   1.5368082  47.0804358  17.3199797
  70.5485201   5.5478334  57.4418783  70.2292395   5.0392801  56.6964483
  69.8917913   5.4103082  58.1245422  20.8202338  10.1406479  63.6134577
  20.0324965   9.6084976  63.5015726  21.2068176   9.8272926  64.4311333
  17.5725508  77.0026588  63.1848240  16.8008840  76.4978266  62.9281092
  17.6559436  77.6737833  62.5074244  73.8245726  30.1730227  23.0935788
  74.1411114  30.5854774  23.8972688  73.0210733  30.6478620  22.8810978
  20.6232643  29.7084379  20.3483438  21.4105606  30.2164793  20.1526594
  20.3231454  29.3938088  19.4956017  26.4517426  51.7993402   6.3487029
  26.9978118  52.0033789   7.1079183  25.7361722  51.2716103   6.7032355
   1.8717076  14.0437996  54.3058491   2.6548788  13.5036206  54.2005777
   1.1468243  13.4616303  54.0781307  31.6705632  77.5566673  15.7871497
  31.6726208  78.1307602  16.5530801  31.3898945  78.1202507  15.0661564
   8.1451404  43.7386847  15.9805846   7.6746625  42.9398251  16.2187123
   8.8808680  43.4340429  15.4494262  24.2012382  47.8009892   9.4594258
  23.7227535  47.9853296   8.6511540  25.0644159  48.1908464   9.3209946
  34.9277925  75.6139135  69.6319389  34.9404216  76.0561132  70.4807758
  34.2339230  74.9595451  69.7130680  78.5684538  32.6907134  56.3620567
  78.0859423  32.6427484  55.5367613  78.1350517  32.0538878  56.9302511
   9.6549910  46.9142103  14.8127759   9.0912378  46.1449814  14.8946381
  10.0206316  46.8503809  13.9304686  55.5544949   2.9189107  59.7777796
  56.3310146   2.7932996  60.3231859  55.6543636   3.8003871  59.4182539
  27.6861072  40.3285694  17.5887764  27.4176478  40.6799984  18.4376931
  27.3760462  40.9739447  16.9534922  27.6427269  44.3207550   1.2152408
  28.0739164  43.9099455   0.4658775  28.0555153  43.9182758   1.9793430
   0.7398112  57.6120520  16.8630469  -0.1617181  57.4455309  17.1382713
   1.0070479  56.8074894  16.4186358   1.8850099  12.0445395   6.7135215
   1.3317007  11.4371979   7.2046596   1.6650508  11.8807983   5.7964396
  25.9425569  18.9854264  15.1702249  25.9467793  19.2314065  14.2451799
  25.0352359  19.1121376  15.4476142   5.4584211  26.5503168   5.8286327
   5.1205277  27.4261355   6.0157168   4.7195011  26.0879660   5.4330814
  26.2068439  19.0351272  22.3812675  25.8858705  19.3257928  21.5276170
  26.3937879  18.1039071  22.2624660   8.9957190  43.1748295   0.2749168
   8.9104712  42.2734785  -0.0357778   8.2407445  43.3025980   0.8493046
   2.6717508  24.4101739   6.4991826   1.7493203  24.2079329   6.6555560
   2.6758438  25.3353786   6.2537986  63.7011957  12.0411253  64.9092627
  64.2282867  11.7712379  65.6613016  64.3032598  11.9966018  64.1664553
  25.0273728  76.4103985   5.9479916  25.0442219  76.7473412   6.8437690
  25.6080985  75.6497288   5.9672558  63.1812493  39.2967684  -0.0641578
  62.9728077  38.3938009   0.1754911  64.1366927  39.3402797  -0.0258487
  82.6267433  78.0421782  52.6956272  82.1344757  78.5887671  53.3081198
  82.7414703  77.2106218  53.1556082  73.0711412  43.1810093  63.4396315
  73.6741400  42.4505711  63.5777521  72.2005272  42.7894688  63.5100222
  14.1669917  68.0025291  25.7923388  14.4454324  67.4774456  26.5426660
  14.2146730  67.4017620  25.0486755  62.6018095  74.4796658  69.3993521
  63.4339237  74.0096092  69.4528866  62.0597219  74.0856075  70.0827932
  26.2228751  46.2154245  14.4800699  26.0824013  46.8390417  13.7676072
  27.1593690  46.0202980  14.4464183  45.7168007  49.9908447   7.6820773
  45.9540462  49.7018671   6.8009198  46.2046146  50.8049440   7.8066128
   2.7631134  42.8301668  15.7192183   3.0078393  43.4711027  15.0517273
   2.0378530  42.3426390  15.3286469  40.9745979  49.6352482  19.0826857
  41.1050415  50.4630947  19.5451617  40.4403639  49.1097736  19.6782577
  35.6407785  28.1041908  13.0873144  35.2615166  28.9522171  12.8565729
  36.5435600  28.3047843  13.3342552  84.8720360  30.9755516   9.0967375
  85.6495094  30.4399753   8.9388317  84.7004604  30.8783865  10.0334084
  45.5616045   4.8456705  42.0337057  45.1193714   5.1790756  42.8144121
  45.4887581   5.5554730  41.3956594  80.9329891  53.9303541  27.3043394
  80.4004288  54.6895027  27.5416327  81.1351299  53.5090446  28.1397247
  10.8223534  21.6846228  27.6062155  11.0879600  22.6007342  27.5260520
  11.4284408  21.2089467  27.0382166  25.3351617  65.6638813  28.7322068
  26.2017608  65.2612162  28.6765218  24.7965050  65.1581240  28.1236959
  70.9259272  77.6895952   6.8990707  71.8540764  77.5074196   7.0459849
  70.5894661  77.9300070   7.7623355  10.0462508  60.6480026  30.7396674
  10.3831577  60.5261374  29.8520470  10.6809139  60.2015686  31.3001418
  13.8995588  36.4319873   8.0733669  14.7494256  36.8155575   7.8569609
  13.5414720  37.0085168   8.7483633  19.6052825  44.3410397  20.6155896
  18.6850548  44.4164801  20.3631616  19.8539448  45.2262020  20.8818436
  15.6814384  49.4335508  29.7981620  16.6330886  49.3326187  29.7779894
  15.5301523  50.3352165  29.5147133  25.3006363  62.8213882   0.3094560
  26.0729146  62.9781914   0.8528085  24.6997309  63.5309267   0.5368372
  28.2517815  45.9122944  26.7960691  28.8100028  45.2839375  27.2540975
  28.8421321  46.3596869  26.1898017  67.7153921  15.1790428  61.6218472
  67.5213099  15.1879847  60.6845713  68.4256935  15.8122754  61.7254114
  15.4631543  52.9842234   1.1815054  14.7785437  52.7431822   1.8055569
  15.1197064  52.7096224   0.3312885  67.9202366  13.0078936  51.5341043
  68.0568266  12.3486972  50.8536386  67.6380062  13.7887859  51.0578871
  -0.0075568  79.0028811  13.6397743   0.4736512  78.2433081  13.3115625
  -0.3699805  79.4141626  12.8550923  29.0922809  32.4429750  21.7146754
  28.5853386  33.2376194  21.8813491  28.7765956  31.8164873  22.3658943
  58.7625456  78.2725096  61.6358709  59.5598888  78.7861300  61.5067720
  58.9517927  77.7236414  62.3968983   3.6673805  48.2195902  19.1305470
   4.5871106  48.2783604  19.3891466   3.2183576  48.8455105  19.6987307
  27.4881268  52.7112436  14.9945891  27.9706454  51.9287920  15.2613842
  27.5480556  53.2982063  15.7483220  57.0635080   3.2893693   5.6352061
  56.5240526   2.5042784   5.7293016  56.4449120   4.0157157   5.7126206
  28.3008480  47.8427410   6.3886517  27.8755713  48.4302521   5.7639873
  29.0525246  48.3397818   6.7113960   8.3567226  24.2803717  11.1544967
   8.2970941  24.5172024  10.2289772   8.6891967  25.0692749  11.5826607
   4.1245601  43.1642389  24.0076971   5.0814086  43.1742668  24.0316081
   3.9041272  42.3316765  23.5899806  23.9936090  65.1451492  37.8613973
  24.6903253  65.0282335  38.5072684  24.2551160  64.5931482  37.1244144
  33.3745956  63.4163952  24.4788408  32.7423668  62.7091837  24.3508887
  32.9756570  63.9767885  25.1444507  79.7029734  23.8144493  63.7511253
  80.6038475  23.8002253  63.4279156  79.1845608  24.1094995  63.0025053
  16.3644648  29.8519135  28.7153840  17.0601141  29.9669671  28.0680323
  15.7485652  29.2480469  28.3003569   3.8208514  36.8011045  19.8881745
   3.8640359  36.3084102  19.0686512   4.1551870  36.1954165  20.5496812
   6.2271392  20.2257752  68.3152819   6.3302869  19.2930210  68.1267023
   5.9424806  20.6079245  67.4851227  26.2700009  67.2492361  14.1412878
  26.1072850  66.3373375  14.3825138  25.4916263  67.7188301  14.4410336
  11.5589130  44.0352583  18.6798120  10.8292842  44.6488714  18.7655580
  11.3699186  43.3476782  19.3183625  12.5605738  62.1859980  20.7480764
  13.4673536  62.1810532  21.0546017  12.0369041  62.1884060  21.5493226
  43.2476568  62.1529388  67.7594805  42.4594307  61.6344547  67.9210758
  43.8802958  61.8339348  68.4030867  10.2665710  57.9050636  18.5630572
  10.9240007  58.5032225  18.9183342   9.4919735  58.4516478  18.4308708
  74.3815708  17.1190310  53.5944319  74.7482586  16.3821530  54.0830851
  73.5820007  16.7706954  53.1999874  26.9575953  42.4208069  15.8084202
  27.6833177  42.3307228  15.1908100  26.1863279  42.5448513  15.2552557
  50.9816074  56.1430454  67.9287386  50.3818512  56.7486811  67.4931574
  51.3090849  55.5827570  67.2251272  18.6150908  63.7825966   9.0785074
  18.4422386  62.8887463   8.7828952  17.8137732  64.0440178   9.5321405
  18.6594236  38.2053423  16.3728833  18.4173679  37.4104738  16.8480945
  19.4988775  37.9939270  15.9644067   8.6797309  50.1338291  25.4269218
   8.8734889  50.3383303  24.5121169   8.5879058  49.1812181  25.4451323
  39.1699886  80.2921009  26.7475820  39.6697402  79.5153856  26.4961958
  39.2143846  80.3063965  27.7036452  13.3012235  42.5609207   7.9802179
  13.2937193  41.8355989   7.3556519  12.7308714  43.2214737   7.5870270
  29.1631341  56.1068964  26.9303989  28.4081268  56.5759468  27.2856307
  29.0200663  55.1952457  27.1846795  27.6961994  36.4511466   6.3252294
  27.8253770  35.5076957   6.4224255  26.8235731  36.5350747   5.9408975
   4.2490152  75.5044270   1.1626968   4.3075451  74.5555401   1.2741259
   3.7128139  75.6208611   0.3783729  12.8478479  48.9870882  33.8668680
  12.6957023  49.9253130  33.9800644  13.0510545  48.6695337  34.7466946
  17.3642397  59.0038300   0.3433894  18.0766928  59.3567562  -0.1896065
  17.3490345  59.5605850   1.1218625  12.6464939  27.5928855   9.1686577
  12.7173889  28.5160613   8.9258593  13.4495890  27.1946025   8.8330340
  24.8871398  74.6916628  11.3987565  25.1636529  75.0980711  12.2200978
  24.1520405  75.2279806  11.1017299  22.0045590  25.7079720  22.2022247
  21.7857957  25.3407478  21.3457656  21.5810275  25.1218724  22.8293943
  72.2717428  61.3636351  69.8060179  71.7681408  61.0851097  69.0411425
  72.6182270  60.5506086  70.1736784   4.5350039  42.9299402  37.8003621
   3.8068026  42.4311638  38.1707335   4.3479669  42.9660940  36.8623090
  45.8197451  72.7125072  63.5755777  44.9861050  73.0966330  63.3040619
  45.7446146  72.6242208  64.5257330  62.4455690  72.6870012  18.2107127
  62.1436024  72.1191263  18.9196324  62.5076723  73.5551071  18.6091626
  17.4080825  31.0615778   6.7811990  18.2396829  30.7042027   6.4698243
  16.7865658  30.8683681   6.0793304  29.3671870  42.8932142  11.9841826
  28.8515234  43.0178118  11.1874390  29.5971346  41.9640684  11.9778061
  17.5454962  57.8901100   4.5791829  16.6420996  57.8396988   4.8915365
  17.5076473  57.5581932   3.6821702  36.8184590  60.3766394  22.7257490
  35.9694791  60.7366657  22.9823542  37.2964406  60.2799320  23.5494089
  23.7516117  58.6120415  11.2692046  24.0142703  57.7911282  11.6855526
  23.2931972  58.3412075  10.4737556   6.4288324  12.9015541  20.6795597
   6.0537052  13.7821054  20.6676531   5.7038867  12.3359537  20.9456086
  81.8928719  40.7030725  26.8494058  81.7381954  41.4874506  26.3230443
  82.8433704  40.5905533  26.8379688  67.2490597  76.3427973  65.1481819
  66.7276907  75.8870554  64.4873428  66.9779062  75.9517431  65.9787130
  76.0980701   8.9246988  54.0408516  76.4680004   8.0457956  54.1239929
  76.7491102   9.4117898  53.5357571  82.7277756  53.6326933  25.0566244
  83.4664536  53.9217520  25.5923867  81.9538021  53.9236975  25.5388141
  21.2911773  66.0684633  33.8801169  20.9148669  65.3117085  33.4307361
  21.0435796  65.9499979  34.7971201  26.7252445  58.7170839   6.2929034
  26.8783450  58.5033512   7.2132897  26.6070485  57.8683519   5.8663827
  72.3024511  76.9335032  52.6486254  73.1471205  76.9913054  52.2020578
  71.7591190  76.4032316  52.0656776  23.4359527  54.1391516   0.7640789
  24.1882157  53.7471294   1.2075298  23.2877445  53.5783005   0.0026913
  34.1444492  53.5922670   8.1261879  33.4511662  53.5928106   7.4661964
  33.6940384  53.7919426   8.9468533  20.7073975  70.3255606   2.2949661
  20.0972342  70.6409216   1.6282737  21.1781359  69.6091175   1.8691233
  14.9286067  10.8069241  13.5312581  14.1059828  10.5353069  13.1241381
  14.9613571  10.3187025  14.3539357  81.5965271  20.3247499  58.3655119
  82.3058891  19.9068105  57.8773022  81.3677979  21.0941887  57.8440857
  39.5085645  22.1190643   0.4598783  39.4891977  23.0420518   0.7127668
  40.0232410  22.1025515  -0.3470083  11.8576849  46.3312864  24.2926240
  12.6584661  45.8764076  24.5535207  11.1764717  45.9561491  24.8507047
  11.0133970  57.7089405  35.5415750  10.6885183  57.8469229  34.6518302
  11.8767989  58.1221294  35.5480647  42.1760273  69.2531967  34.2545342
  41.8949080  69.3081427  33.3411980  43.1101561  69.0500546  34.2058086
  40.2701569  71.7502022  65.8612919  39.8290372  71.0937977  66.4005280
  40.3301096  72.5218487  66.4244890  15.9216011  73.4403086   0.7255438
  16.8697286  73.4210062   0.8555960  15.6515443  72.5246716   0.7956092
   9.8270345  76.6928148  15.7799888   9.1922736  76.5077162  15.0878561
   9.6684241  77.6078272  16.0119855  39.5962596  63.1792593  14.8575008
  39.7798991  63.0660057  13.9249337  38.6692405  63.4151983  14.8921394
   7.8806800  30.3212667  13.2219541   6.9951999  29.9723697  13.3240771
   7.8074801  30.9553623  12.5086558  15.5290139  78.2643938   7.7389538
  14.9856150  77.9440641   7.0189983  16.2369335  77.6238441   7.8080797
  46.4985752  54.7732115   9.4423896  46.0897875  54.9846935  10.2816749
  46.5531588  55.6119871   8.9844567  49.7661495  54.6554661  21.8962026
  48.9083576  54.8312235  22.2828937  49.7368431  55.0868654  21.0422301
  33.6816692  69.5887899   6.6976428  34.4251704  69.9970055   6.2540275
  33.0551863  69.4069719   5.9971470  18.2539690   9.4208205  67.0853472
  18.5243857   8.6915529  66.5274286  17.3523283   9.2131978  67.3306417
  83.9561081  34.2941380  34.9456811  83.9486885  33.3907247  34.6294141
  83.1271362  34.6619201  34.6394753  39.0279627  28.9284825   8.5756648
  39.3247342  28.4410834   7.8071594  38.1135082  29.1393352   8.3871269
  14.1741014  26.2478399  47.3655272  13.7050641  25.4325414  47.1879864
  14.0157938  26.7886114  46.5917444  55.8695984  63.5255766  20.0939322
  55.6078386  63.1012249  19.2768383  55.5644560  64.4283104  20.0034356
  52.5656271  10.8350646  67.8236055  52.4765348  10.0656414  68.3859968
  51.9477463  11.4697540  68.1864023  37.6971865  14.0586317  12.1910143
  36.7464733  14.1676009  12.1685362  37.9453230  13.9307606  11.2754226
  35.6389832  46.6775656  12.1457005  35.8123326  47.5674105  12.4528825
  35.8815551  46.6922760  11.2198627  38.0567169  61.3070345  33.3858967
  38.8510108  61.8369627  33.4529972  37.3538065  61.8922377  33.6681867
  31.7819118  44.2613363   0.4319061  31.4719510  45.1663971   0.4000239
  32.2867703  44.1525412  -0.3740175  81.4586830   6.2340689  15.0793481
  80.9403610   5.5980480  15.5723572  81.0349560   6.2752885  14.2220306
  45.5512190  67.3811102  21.8682885  45.2902269  68.1569433  22.3644662
  46.0436487  66.8506622  22.4946833  10.0289857  25.4081249  69.5539808
  10.2656949  25.4810214  70.4785824   9.4700587  26.1675286  69.3892431
  31.4583850  57.4383068  36.9566941  31.4244366  57.6909447  36.0340619
  31.2942290  58.2516479  37.4339318  14.0531886  27.0005441  53.8280964
  14.4230735  26.2034512  53.4485531  13.4085774  26.6869879  54.4624424
  29.2702389  55.4234886  20.3896570  28.4473610  55.1674795  19.9730492
  29.0275216  55.6305695  21.2921190  55.8667898   9.4984919  18.4450531
  56.5977764   8.8987029  18.2962608  55.2090120   9.2391264  17.7998447
  17.1169436  36.8187523   6.8221271  17.8061283  37.4204350   6.5406400
  17.5332129  36.2730551   7.4893343  56.9184589  35.3987670  66.7895842
  56.4602900  34.9447274  67.4968052  56.8305540  36.3273478  67.0046186
  61.4758158   1.4130943   8.1220108  62.2545862   1.6382656   7.6130420
  61.2246752   2.2314909   8.5502481  30.4027915  50.0530243  13.2962167
  30.9282351  49.6218252  12.6222658  31.0294247  50.2688456  13.9868569
  28.6954498  60.5866337  16.2446368  28.2795262  60.1522017  15.4999828
  29.0975785  61.3705873  15.8705473  62.6082611  41.2019682  10.5195129
  62.9187059  42.0923090  10.6842661  62.0742512  40.9890461  11.2848461
  37.4483728  60.5444241  14.9987853  36.9029856  59.7813797  14.8076081
  38.2851815  60.1758432  15.2818656  72.5376749   1.7257278  24.2087197
  73.2592726   1.2717003  23.7735295  72.9039860   2.0102987  25.0460196
   5.0302660  30.5835223  65.7775116   4.6485990  31.4607167  65.7444429
   5.0261694  30.2860832  64.8677111  11.2970424  16.0025346  63.7399197
  12.1068764  16.4796793  63.9208460  10.6132257  16.6717076  63.7687922
  35.5200815   5.1277804   9.4228542  36.4219809   5.2562183   9.1290641
  35.0000882   5.1571780   8.6197501  60.8072662  52.2508812  23.1781626
  60.6851578  53.1602478  22.9054475  61.4708042  52.2943544  23.8666797
  25.7420564  55.4322815  22.9996109  25.8619189  54.5398808  22.6748347
  25.5524087  55.9487677  22.2163439  49.4619942  50.3029108   3.8069046
  48.8354588  49.5839405   3.8891783  49.8608160  50.3734779   4.6741939
  63.1127548  65.9938478  20.2976489  64.0229464  66.1377001  20.0386381
  62.6144648  66.6307068  19.7854424  31.2569714  67.4757624   3.6609161
  30.9614658  66.7758703   3.0786270  31.5402198  68.1744337   3.0711171
  30.9713316  23.7137270  64.0044737  30.9336257  22.8986979  64.5050097
  31.1219740  24.3922400  64.6626186  15.9453571  61.4854431  13.9948690
  15.1059091  61.7339516  13.6078238  16.1818504  62.2278070  14.5509243
  27.0724773  68.3907700  33.4297442  26.9766021  69.2694044  33.0622578
  26.8771887  67.8032160  32.6997614  11.3407671  32.4179459  55.7030678
  10.9472215  33.2900238  55.7319689  11.2131131  32.0682240  56.5849018
  75.7600212   0.3612395  17.6588690  75.9808731   1.1437269  18.1640136
  75.2552128  -0.1807195  18.2652366   7.5920546  61.2360811   3.6267152
   8.4878105  61.2743282   3.9619616   7.1105468  60.7368469   4.2863721
  56.8431854  62.6437616  14.1401970  56.8095827  63.1196213  14.9700522
  56.1385965  61.9991064  14.2050624  10.7645881  19.8379481  51.7368889
   9.8742300  19.4881487  51.7705631  10.6473362  20.7799888  51.6142225
   8.7682527   9.4532794  59.6756363   9.0044612   9.4973308  60.6021881
   7.9290688   8.9929897  59.6640205  31.1682534  45.1115894  12.9906392
  30.5009651  44.4785166  13.2555473  31.2526727  44.9890757  12.0450735
  69.9477434   3.1903878   9.2083377  69.6871710   2.7532601  10.0190485
  69.6078300   2.6274648   8.5127729  18.1170499  14.6950340  64.9904728
  18.2568312  13.7500656  65.0515270  18.7461162  14.9881029  64.3312168
  25.7228112  21.0569739  60.6327581  25.8237910  20.5103707  61.4120245
  26.2986708  20.6552768  59.9821758  21.1276865  60.9807968  65.2058506
  20.2599382  61.2536049  64.9078274  21.5549707  60.6407309  64.4197130
  33.9133549  53.2337856  23.5526204  33.7472081  54.1750526  23.5011935
  33.1410432  52.8321505  23.1545568  51.8162107   5.0127250  26.0567379
  52.4091339   4.3021980  26.3013268  51.7209053   5.5309427  26.8558621
  20.1121783  60.0283575  35.5947995  19.5655370  59.6170759  34.9252748
  21.0091043  59.8862648  35.2922034  36.5142155  69.1472054  15.6980991
  37.0417261  69.6340990  16.3312650  36.5660763  68.2377672  15.9921491
  42.1932602  63.5250139  18.0540931  42.8266048  64.0885353  18.4985566
  41.4684200  63.4439087  18.6739850   4.2455402   7.9262757  56.3058901
   3.9985663   7.0441788  56.5836287   4.9138606   7.7877510  55.6347752
  30.2425075  61.1330223   4.0215182  30.2518058  61.3467360   3.0885267
  29.8347020  60.2681351   4.0650684  29.2999387  67.1553135  15.0858247
  29.8971272  66.7508602  14.4565260  29.6894312  68.0099726  15.2704608
  40.7743740  68.7293339   0.2956275  40.4313183  69.0338945  -0.5444829
  41.4987421  69.3245792   0.4885197  65.0456476  10.7394683  14.8351407
  65.1885462  11.0560715  13.9431906  65.8540010  10.9575462  15.2990830
  18.7243080  67.7317810  10.5835319  18.9573050  67.1949816   9.8260403
  18.9985693  68.6168385  10.3433549  16.4333558  61.9315386   7.1598262
  16.1514211  62.8156805   7.3944175  16.1882651  61.3942099   7.9131138
  80.8136654  32.6763511  66.5093756  80.8566475  33.0753541  67.3783875
  81.5269279  32.0380235  66.5033627  22.6338029  58.9462471  22.3908329
  22.2464108  58.5537386  21.6084671  22.3175907  59.8497009  22.3871803
  31.5278220  42.1420717   6.6224587  31.7205644  42.2420979   5.6902158
  32.1952963  41.5345240   6.9411975  26.7168164  47.3726940  11.7834735
  27.3534775  47.8428268  11.2450767  25.8846855  47.8125668  11.6093850
  63.3770704  28.7496948  57.4289703  62.9081011  29.4532323  56.9802666
  62.6914406  28.2480907  57.8700304  70.4052687  45.3377771  59.3361759
  71.0274935  45.5167437  58.6311674  70.9531212  45.1844025  60.1059580
  43.8731623  54.2073059  22.6624751  43.1708527  54.7704983  22.3371816
  43.8601208  54.3320799  23.6114192  14.4525766  28.5671163   5.9062958
  14.4016552  29.3504143   6.4540970  15.3378844  28.2322598   6.0488874
  35.9531546  59.4687223   3.2059729  35.6729102  60.0285006   3.9300919
  35.9207273  60.0377369   2.4369454  32.0185924   5.9010279  16.4514267
  32.5266767   6.1436385  17.2255206  32.6499534   5.4686958  15.8763576
  14.9641585   8.5550463  69.1587400  15.1147187   8.2893586  70.0659180
  14.9565005   9.5117837  69.1874933  12.1289706  59.3922615   4.3469170
  12.2365427  58.8077497   3.5965788  11.8049538  58.8258600   5.0472295
  69.9528980  19.0673959  31.1329532  70.1288652  19.6814811  31.8458128
  69.7426701  18.2436621  31.5728378   3.4204534  60.1535749   1.5117088
   4.3454558  60.1364994   1.7572907   2.9548228  60.2689600   2.3400241
  68.2578993  67.8197908  21.8911934  69.1577864  68.1436777  21.8520355
  68.3189249  67.0020962  22.3850441  53.9743757   0.5041717  20.8003426
  54.0046787   1.0590868  20.0209951  53.8337898  -0.3793474  20.4599595
  26.2006569  66.2934494   3.8394201  26.9698787  66.3217211   3.2704467
  26.4358926  66.8421316   4.5876464  15.0725484  35.1342583  19.5781660
  14.9824178  34.8576188  20.4900765  15.4044187  34.3594694  19.1245186
  50.1601458  68.9346123   9.6393126  50.7980680  68.5431099   9.0426427
  50.6758308  69.5276308  10.1857817  19.3861556  38.9851236  20.6338501
  19.4856715  39.8555565  20.2482605  19.6996772  39.0841198  21.5328121
  65.5562925  23.8961124  69.9712801  65.5000305  23.5740399  70.8709145
  65.3058195  23.1458664  69.4321871  19.0024257  35.1030016   8.0906063
  19.3408692  34.3466783   8.5698384  19.0635884  34.8498607   7.1695137
  32.5555563  32.9803228  10.6906509  31.8865299  32.2976947  10.6391764
  32.5370455  33.2654262  11.6042185  49.2383337  50.6564522  24.8859429
  48.7109327  51.1287642  24.2417407  48.6428308  50.5079603  25.6204891
  14.8225403  75.4568148   2.3455310  15.3640831  74.9363852   1.7521374
  14.4657457  76.1538172   1.7949702  35.5563140  66.5926743  19.9647415
  35.6088853  66.2919426  19.0575325  36.3172197  67.1633530  20.0723696
  44.4791651  47.4088764   4.5191434  43.7094402  47.6433802   4.0007195
  44.2097902  46.6326475   5.0102055  32.8724623  63.3552504  19.5337236
  32.5052547  63.8669348  20.2545357  32.1752167  63.3299780  18.8784051
  39.7458577  63.9694309  20.3938651  39.8527718  63.2212925  20.9813046
  38.8982320  64.3435335  20.6343007  75.1178312  74.1134214  69.3590593
  75.9613514  74.4955778  69.6012545  74.8176050  73.6724901  70.1538420
  31.0474014  45.1453161  19.4972992  31.9726348  45.1086998  19.2547381
  31.0489607  45.4619360  20.4006147  78.9909172  47.4976349  22.2542834
  79.8972750  47.1899033  22.2479653  78.6126089  47.1449471  21.4488482
  78.0002069   6.9365185   1.9841190  78.4526682   6.0999328   1.8762702
  77.1505404   6.8052715   1.5633157  26.4410901  56.9643307  11.2146854
  25.8250093  56.5293217  10.6252408  26.7029738  57.7564049  10.7453644
  46.5830517  68.8075256  24.1529775  46.1264610  68.5632133  24.9580050
  47.2746849  69.4031668  24.4412327  12.1328235  32.5859261  69.5218754
  12.6228249  33.2433438  70.0157738  11.9545603  31.8926525  70.1573515
  19.3044698  55.9023237  12.0837939  18.5876381  56.3692474  12.5131726
  19.6404612  55.3092051  12.7557683  31.5542984  54.9932194   4.4026300
  30.6475425  55.2996540   4.3915722  32.0546794  55.7377672   4.7365451
  36.0959721  61.5093565  29.7206831  36.5547442  60.8862734  29.1571903
  36.6614747  62.2815323  29.7341132  41.0030746  70.8780670  31.4009881
  40.1757622  70.4322195  31.5826702  40.7843399  71.8095207  31.4288592
  58.6624527  61.5528059  16.9316947  58.7369680  61.5640593  17.8859234
  58.2413578  62.3845148  16.7145097  31.2880278  79.0235233  33.9259362
  32.2256827  78.8641787  34.0338397  31.0751605  79.6672392  34.6016192
  40.8222103  62.2763014   7.4957103  40.0688267  61.8833113   7.9363966
  40.8220577  61.8819332   6.6235250  24.0655017  32.3791862  15.7471418
  23.2212687  32.7159166  16.0473311  24.7128057  32.8691125  16.2542915
  15.0136006  46.7935705  14.2818356  15.8472002  46.9257021  14.7333717
  14.8819363  47.5989103  13.7815118  37.8978562  46.0967398   7.4632674
  38.3238292  46.9461489   7.5785267  38.2283854  45.7748795   6.6245854
  67.4488688  59.1294289  21.2029481  67.8966570  59.6186161  20.5127239
  68.1447554  58.8841009  21.8126917  28.6834717  37.3704028  10.6050873
  28.3526158  36.8100929  11.3070989  28.0059004  37.3338056   9.9299651
  47.5859642  47.5719881  13.7592137  47.7625895  48.1539726  13.0200732
  47.7710247  46.6950464  13.4231234  39.7171664  31.4500690   6.9840735
  39.6231246  30.6984043   7.5692123  40.5964565  31.7837524   7.1622312
  57.2287130  78.3741760  38.3041859  57.9291582  77.9350519  38.7866569
  56.6050863  77.6772785  38.1000972  35.2552247  72.9327059  23.7420321
  34.5184636  72.9618645  24.3524122  34.8603535  73.0807161  22.8827286
  40.1949358  54.3398619   2.0341684  41.0930538  54.0368176   2.1674991
  39.8659992  53.8040018   1.3124441  21.8294930  36.4995241  12.2359145
  22.7332830  36.7472672  12.4308920  21.9077468  35.7094431  11.7012382
  84.1854095  43.6837578   2.3366228  83.7160397  43.6420107   1.5034458
  83.8747978  44.4911671   2.7463084  67.9561472   2.3247814  68.0445910
  67.3050451   2.6708117  68.6549711  67.4741936   2.1965343  67.2275829
  29.0177917  61.3698101  20.9932971  29.0045738  62.2675657  20.6615019
  28.9608335  60.8238029  20.2091646  32.3553205  61.4850235  17.2981906
  31.9783854  60.6093884  17.2120643  31.5977836  62.0667410  17.3612428
  72.4974203  43.3323860  57.9508209  71.8635511  43.0806780  57.2791958
  72.8475809  42.5018215  58.2729769  22.2720504  66.2881613  30.7388783
  21.5577102  65.7202864  31.0277843  21.8963122  67.1684980  30.7466912
  21.9753313  11.1213171  56.4318562  22.4697971  11.9293606  56.5689707
  22.6435328  10.4579103  56.2597227  32.7432823  13.0750358  61.7475128
  32.5316548  12.1460640  61.6555405  31.9247961  13.5282969  61.5453577
  29.4528437  80.3688622   4.1899472  28.5996771  80.7177544   4.4480443
  29.6031642  80.7266331   3.3149400  21.9637132  22.1927500  47.2337484
  22.7038765  21.7850995  46.7840672  21.4680505  22.6234460  46.5372944
  69.2202950  20.0381088  65.5353022  69.1282511  19.4296408  66.2684631
  68.7265921  20.8129907  65.8037138  46.1185503  69.4406891  31.1238146
  46.9086742  69.9171400  31.3786244  45.4162598  70.0874567  31.1924267
  49.8733234  59.4871187   4.7779593  49.1417122  60.0620365   4.5533606
  49.5115376  58.6031961   4.7145635   7.7934980  51.8035412  31.6867638
   7.8791809  51.6659594  30.7433867   7.3066819  52.6238918  31.7659283
  51.3632774  44.4018888   7.0804143  51.1614037  44.4023991   8.0160844
  50.6973648  44.9688721   6.6914099  77.6537895  29.7818208  59.3129158
  77.0299768  29.1596198  59.6870279  77.3312712  29.9401855  58.4257078
  27.4105239   4.1964033  65.7886457  27.1972728   3.3551210  65.3849173
  27.7600408   4.7247034  65.0710344  36.5992141  66.7259693  41.6001177
  37.4692774  67.0570946  41.8227816  36.5115714  65.9208202  42.1103001
  71.3635826  33.4265876  10.6959414  70.8959866  33.0201244  11.4255834
  71.7580128  34.2131734  11.0726893   4.8520106  41.3929224  51.9888735
   4.6090913  42.3187447  51.9803667   4.9990478  41.1754179  51.0683823
  39.0641832  79.3055248   6.1650497  38.7570095  78.4116983   6.0135752
  40.0157881  79.2241859   6.2287945  20.0221920  59.5649099  67.4658298
  20.0140142  58.6673832  67.1332550  20.1865649  60.1052237  66.6929913
  42.6902485  67.3223305  13.0624640  42.0275927  66.9567919  13.6485553
  42.3232841  67.2089720  12.1856964  43.0379725  77.4116182  25.9952927
  42.9994345  77.2023439  25.0620461  43.7412500  76.8587780  26.3358808
  37.3403478   4.2556974   2.7341488  37.1307564   4.3690446   1.8070802
  38.2961297   4.2934981   2.7699855  44.9328423   4.8761237   3.5576761
  45.5448484   4.1472360   3.4556860  44.6653318   5.0910789   2.6641077
  36.3520527  70.1522827  30.2841902  36.4116955  70.1466513  29.3288660
  35.8650923  70.9504890  30.4890633  16.6380250  63.9353085  54.3983364
  15.8201802  64.1928101  54.8238420  16.3669026  63.5881567  53.5485077
  64.9566317  56.9031763  26.4383888  64.1546774  56.8522596  25.9182858
  64.9825859  57.8076506  26.7506194  49.1393757   9.6077365   2.5173083
  48.4436274   9.6881437   3.1697690  48.6923170   9.7079200   1.6768700
  52.0631170  49.2560577  13.5337365  52.3859501  50.1417446  13.6997724
  52.1646023  49.1372538  12.5893760  32.2305751  52.9861689   6.1090952
  32.8946066  52.5355196   5.5873621  31.8464422  53.6245823   5.5081773
  67.0144033  19.4535995  14.4789112  66.3315344  19.1637039  15.0837922
  67.6083279  19.9740696  15.0198317  50.5388021  78.1055212  57.4267197
  51.1801481  78.7674284  57.1682835  49.9792480  78.0008698  56.6571903
   9.2370504   7.4638021   6.7828453   8.9386529   6.7771572   6.1864311
   9.0332162   7.1280682   7.6557523  48.6217976  23.9705515  12.8208661
  49.0896225  23.4896421  12.1381497  49.3119335  24.3078327  13.3919942
  12.0405447  29.3638420  49.4753885  12.6584661  29.8691607  50.0036478
  12.0720351  29.7747850  48.6114645  81.2124252  78.8976479  48.0261374
  80.6628799  78.5516739  48.7293673  80.9567261  79.8171329  47.9526758
  78.1995630  40.2760077  62.3236370  78.0530214  40.5457020  61.4169836
  78.2256031  41.0962772  62.8162956  58.8165045  70.3399181  34.2204785
  58.1920195  69.6347857  34.3908978  59.0262604  70.2545118  33.2904577
  69.4025898   5.5194092   2.9471076  69.1902018   6.4512694   2.8945848
  69.1865301   5.2748597   3.8469672  22.9666305  77.8408718  18.4485531
  22.9043698  76.9856071  18.0232549  22.0612144  78.1459570  18.5066426
  20.6708002  44.1030264  29.1673589  20.2539754  43.9848948  28.3138156
  19.9968982  44.5150518  29.7080302  39.7257686  53.7702799   6.2443316
  40.5080366  54.3116665   6.1385554  39.6975613  53.5703802   7.1800005
  61.9224119  11.6454971   6.1738294  62.1292496  11.6481411   7.1084112
  61.5493298  10.7786942   6.0135430  23.3375978   8.8028723  10.1547956
  22.8060532   8.0328363   9.9529654  22.7776527   9.3402755  10.7150555
   8.0899394  75.5319643  13.7530828   7.4941647  75.1722002  13.0959272
   8.5301852  76.2553310  13.3068144  66.0772610   1.0788108  17.0318162
  66.1384630   1.5953350  17.8353631  65.6734991   1.6705078  16.3969123
  22.0346093  44.0857744  59.7729397  21.9555807  44.5979500  60.5777121
  21.7019391  43.2192612  60.0068569  14.1388309  78.1568718  18.9900529
  14.4019854  78.4184027  18.1076813  14.2173779  77.2028971  18.9905453
  48.0375290  15.3083122  26.5954709  48.2618523  16.2183058  26.7899489
  47.1835375  15.1787436  27.0079565  61.5458632  10.2056158  18.1528378
  62.2513676  10.2698648  18.7965500  61.9031477  10.6140757  17.3643327
  86.2570572   6.5506166   8.6007696  85.8281040   5.6999022   8.6930239
  85.5374146   7.1816367   8.5883909  73.7573910  35.9446383  64.5839596
  73.8095903  36.0602760  65.5327129  74.0710258  35.0528383  64.4337559
  27.8205419  77.3566103  10.3781426  27.5930285  77.1976852  11.2942278
  27.8490853  76.4849043   9.9837446  74.6077394   0.7676549  22.0967269
  75.5591106   0.7221077  22.1918726  74.4641113   1.4653192  21.4573002
   1.9197671  18.9479434  20.2676535   1.6128708  18.5052514  19.4764090
   1.7918122  19.8790181  20.0861049  28.5785317  80.8645725   7.9695898
  29.4913340  80.7119942   8.2140142  28.3022928  80.0480080   7.5534838
  57.6201487  72.6744986  68.9024591  57.3075104  72.4893808  68.0168962
  58.5236645  72.3585081  68.9084244  78.1408691  28.3507371  50.1570415
  79.0811777  28.1722331  50.1436281  77.9855394  28.8758421  49.3719482
  44.3079472  62.9059982  65.4388475  43.7218428  63.6328459  65.2281046
  44.0056372  62.5941229  66.2918282  81.6634750  11.7910802  60.2159166
  81.5120220  12.2221053  59.3747759  82.5878620  11.9525445  60.4047728
  11.8130052  53.9378405   5.0044000  11.9981730  53.4584761   5.8119589
  10.9265304  53.6684942   4.7638860  10.1816320  80.0798130  12.7620363
   9.5327371  80.4789543  12.1825075  10.1168931  80.5807400  13.5751259
  59.1659117  32.4727726   6.9060504  58.2551670  32.7080917   7.0832652
  59.6656656  33.2538533   7.1435136  14.6189451   9.4947869  49.2804050
  15.2046680   9.6220726  50.0267029  13.8183832   9.1354752  49.6628046
  11.1084926  57.8200769  10.5223691  10.8060181  58.0595493   9.6463573
  10.8233774  56.9132519  10.6346321  43.7067270  67.3650026  61.8603325
  42.8962135  67.5938606  61.4054441  44.1858053  66.8196869  61.2363529
  62.1174669   7.7375060  68.2136774  61.3679361   7.9543567  68.7681246
  62.2128439   8.4929585  67.6336527  77.8301430  72.6430464  54.3161345
  78.7624836  72.7990961  54.1657305  77.4256706  73.5061693  54.2286539
   0.5271880  17.5231647  58.2539463   0.3107032  16.7315030  57.7613640
  -0.1830664  17.6115155  58.8895273  69.1017008   7.2861475  53.5983706
  69.7261715   7.8895789  53.1957102  68.4281301   7.1576321  52.9305220
   6.8170422   6.8721563  54.9191523   7.7292633   6.8347383  54.6316051
   6.5161449   7.7397400  54.6489859  32.0283365  17.2756910  16.5406168
  32.0847869  18.2308030  16.5122151  31.9760990  17.0114291  15.6221032
   9.2992222  18.2774282  67.5514269   9.0971524  18.4331465  68.4740067
   9.9833703  17.6081240  67.5657463  81.7368317  36.6795063  64.5199585
  82.3180485  36.5557885  65.2703619  81.9720650  35.9750581  63.9160967
  54.8857546  22.8381419   3.6981016  55.3031158  23.4231091   4.3304420
  55.5105114  22.1216583   3.5859987  20.2549672  20.6421256   2.4857858
  20.8454156  20.0253725   2.0530973  19.5819974  20.0901389   2.8840983
  61.0470772   8.8029081  59.6458149  61.8912220   9.2524517  59.6853399
  60.6685877   9.0770841  58.8104677  37.3788200  81.3093218  68.7624454
  37.2886406  80.8819628  67.9107046  38.1969247  80.9629647  69.1187763
  12.9251528   0.6357360  57.8988504  13.7504995   0.7612191  57.4305630
  13.1831765   0.2714200  58.7455654  76.6824198  74.6110058  12.8164291
  76.8380117  74.6790648  11.8744147  76.4916468  73.6842680  12.9613364
  17.3761296  60.6254721  26.8193936  17.9315650  59.8678875  26.6355848
  17.2399628  61.0354948  25.9652448  20.6051564  18.3100665  61.1297941
  21.0450435  17.4835026  60.9309864  20.7792807  18.4564662  62.0595694
  45.5142117  69.6302032  51.5811014  46.1863995  70.2087069  51.9412756
  45.9996748  69.0046978  51.0432339  34.5313239  49.7142839  17.5456309
  35.3989983  49.7468662  17.1427548  33.9268017  49.9036312  16.8280435
  69.8409224  10.8009577  65.3253078  69.9707460  11.3521993  64.5536137
  69.8183489  11.4163053  66.0581541  25.1012206  34.5656443   7.9611850
  25.9517860  34.2349124   7.6724172  24.9020433  34.0591168   8.7485790
  23.9296222  24.2052650   3.8279125  23.7071395  24.7931647   3.1060350
  24.6035194  24.6743917   4.3198633  32.5295329  49.9474287   3.6085057
  32.5003839  50.8632994   3.3318111  33.4036303  49.8380566   3.9829704
   2.3230822  23.3198547  61.5763617   1.6100104  23.7347245  62.0617914
   1.9209287  22.5526786  61.1689949  36.8422675  36.3434958  12.9972613
  36.5999722  35.6259632  12.4118793  36.6140795  37.1362019  12.5116920
  21.1166215   2.2532105  69.8709345  20.5632305   1.8310687  69.2138290
  20.6066775   3.0083227  70.1641798  61.0624266  45.1351595   7.5627631
  60.4485893  45.4892445   6.9192880  60.7451439  44.2484140   7.7337748
  18.6494493  37.3015165   9.4939810  18.9086711  36.4759016   9.0848440
  19.3119645  37.9297090   9.2064357  33.4340692  56.4198685   9.5802104
  32.8933978  56.4941931   8.7938392  33.8307667  57.2851706   9.6807897
  66.7698336  61.3271666  59.9888611  66.5403032  61.9349051  59.2858696
  66.3938522  61.7194653  60.7768822  19.3262112  64.3853092  19.4644272
  20.2411985  64.5933151  19.2753136  19.3233645  63.4416819  19.6250391
  36.7531466  51.2756920   4.8901457  36.7356586  51.5137243   5.8171117
  37.4706078  51.7925596   4.5236334  20.6221437  45.9988642   7.0112222
  20.9969139  45.6052494   6.2232840  20.7793140  46.9374228   6.9080871
  76.8885756  30.4713845  66.1656046  76.5204477  29.6528292  65.8329201
  77.8095484  30.4426408  65.9063482  18.8756466  38.8661051   6.5552092
  19.7148335  39.1302395   6.9323415  18.6512363  39.5737886   5.9510112
  24.0798235  79.5481968   7.2859997  24.2954826  80.4375839   7.5665635
  24.7779799  79.0055227   7.6524901   5.7386816  27.3660016  52.0452833
   5.1825970  26.7563462  52.5303888   5.8748424  28.0972433  52.6477623
  83.6121750  70.7671690   1.3409214  84.5598984  70.8930779   1.3878447
  83.2691288  71.2476587   2.0943682   7.4050945  10.2692914  70.1467419
   7.2440118  10.8890033  69.4352341   8.2506120   9.8744339  69.9336195
  29.6647167  68.4778309   5.6054521  30.4929924  68.1105947   5.2967030
  29.3963742  69.0802002   4.9116400  34.1977072  37.2137833   4.4489530
  34.2849255  38.0557585   4.8958355  34.3674016  37.4126410   3.5281429
  69.4385767  26.1403275  15.9105122  69.3001318  26.7811084  16.6079831
  69.5708513  26.6682243  15.1230741  27.8992677   5.6401062  52.6668501
  27.7836108   5.1066661  53.4531689  27.4070621   5.1771986  51.9888496
  44.9855375  35.7494473   5.9037501  45.0996208  34.9345112   6.3927227
  45.8403254  35.9107661   5.5043137  18.4801269  22.8360438  47.6481485
  18.0341852  21.9957376  47.7542257  17.7721608  23.4783912  47.5991058
  28.0323052  10.4569066  38.3693290  28.6416435  10.5803335  39.0971375
  28.1283545   9.5350355  38.1302500  33.3152533  56.1242008  23.4352803
  32.3977661  56.1524725  23.7066627  33.3293533  56.5753222  22.5911713
  37.2924042  40.9084225   4.3619159  36.3602781  41.1148214   4.2928326
  37.7091503  41.4574194   3.6977205  40.5744028  41.7894602   6.8773603
  41.4322805  41.3955593   7.0358485  39.9504209  41.1527491   7.2258937
  85.8440399  11.2169898  40.7486963  85.1126575  11.0818195  41.3512230
  86.6049767  10.8694589  41.2139130  51.1488295  21.2462950  14.1969740
  51.5543509  21.4832544  15.0310218  51.6225815  21.7627716  13.5450208
  16.2205338   6.8869960  50.2724123  16.5419531   6.3140714  50.9686041
  15.3675854   7.1885753  50.5850792  34.1611505  60.7160807  22.2422075
  34.1334319  60.5480289  21.3002849  33.2511401  60.8925390  22.4809027
  33.2683349  34.8226500   8.7776804  32.4794412  35.3647351   8.7727678
  33.1170678  34.1859198   9.4761974   7.8805083  14.2173028  36.6897225
   8.3252811  14.4937885  35.8884954   7.9201412  13.2611728  36.6679215
  43.0353403  63.3821630  55.2556992  43.3891535  63.0733871  54.4216061
  42.3854923  62.7228165  55.4989862  28.9741373  53.0517626   3.5950232
  28.1894922  52.8760862   3.0756947  28.6435699  53.4435225   4.4034052
  11.5241539   3.9230430  66.0871935  11.0603988   4.6996012  66.4004374
  12.4433959   4.0941715  66.2919903   9.1645795  49.4064999   8.3278918
   9.0701801  48.5059500   8.0175179   8.4916395  49.4991922   9.0022743
  12.4983501  70.9943819  20.1508570  13.3801043  71.1176968  20.5023336
  12.6356411  70.7899618  19.2258739  79.2209482  15.6191099  63.7014961
  79.8335743  15.2229059  63.0818605  79.2756605  16.5583122  63.5250425
  20.6920028  48.5891104   1.2453133  20.0497890  48.4618998   0.5470224
  21.0073328  49.4842291   1.1205526  24.5296049  75.4961824  24.2182183
  25.4776049  75.4968309  24.3506241  24.2086506  76.2006235  24.7812295
  22.6660466  31.5580559   1.3716583  22.7498794  32.1659136   0.6370068
  23.4779906  31.0513306   1.3571100  35.3406906  54.0103817  11.7547607
  34.5434833  53.9115620  11.2342536  35.0301456  54.0810823  12.6574206
  18.3608437  24.7253108  57.2276163  18.8125551  24.1803908  57.8720140
  18.2396865  24.1512346  56.4713144  34.4230080  41.5688419   4.6117103
  34.0497065  41.9164801   3.8017553  33.8156676  40.8787775   4.8785031
  39.4175196  69.8070478   8.9760917  39.9293733  70.6055021   8.8468415
  39.4876671  69.6266937   9.9135262  67.0499706  80.7678795  54.9300432
  67.8987885  80.7632351  54.4876432  66.6226673  79.9630928  54.6368694
  55.0385094  23.5611820  66.6814375  55.6892729  23.7941122  67.3436165
  54.2039680  23.8425922  67.0563793  46.2399387  71.7995596  55.0798464
  45.7678938  71.2105322  55.6684494  46.7922020  71.2208796  54.5541430
  17.1452153  37.2463775  56.2685871  16.7082119  36.4637852  56.6044569
  17.8045130  36.9105458  55.6613159  52.1305847  81.0555840  64.7489214
  52.5390434  80.5508995  65.4522562  52.2894287  80.5381775  63.9594316
  85.9957377  85.9957377  85.9957377 109.4712190 109.4712190 109.4712190
