
42452  0.0000000e+00
  49.8941803  35.5411053  51.7388678  50.4196024  35.8889437  52.5281954
  49.7553968  36.3532543  51.1546993  50.3799486  34.8530340  51.1814785
  48.5184765  35.2021670  52.2012281  48.3936071  35.7964611  53.1063938
  47.3968506  35.7008052  51.2229633  47.5145626  35.1043153  50.3182840
  46.4113140  35.4837036  51.6348886  47.3460531  37.2168541  50.8101225
  48.3507872  37.9091954  51.1077881  46.3578463  37.5850344  50.0968933
  48.4203625  33.7284040  52.5025845  48.5342407  32.8832197  51.5782976
  48.2465744  33.3389139  53.7839937  47.9872274  34.0808773  54.4182873
  48.1856251  31.9941330  54.3030977  48.2766247  31.3405752  53.4355211
  49.4327116  31.6928077  55.1773500  49.3678951  30.6204057  55.3613615
  50.7320023  32.0113587  54.4556713  50.7515955  33.0401587  54.0961027
  51.5825844  31.6424727  55.0288534  50.7651329  31.5127230  53.4869766
  49.3960476  32.4497342  56.2588453  49.4682169  31.7944384  56.9566822
  46.8549681  31.6342044  55.0751829  46.5481377  30.4522777  55.2638912
  46.0693693  32.5936007  55.5117607  46.5451860  33.4844923  55.5148983
  44.8630762  32.3923826  56.2447453  45.0467157  31.9085145  57.2040415
  44.2315435  33.7635016  56.4654636  45.0585032  34.4103265  56.7584753
  43.6391926  34.0622258  55.6006050  43.3664417  33.7734556  57.6257372
  43.7111330  34.2620754  58.3767653  43.8141298  31.5675998  55.5906010
  43.6436939  31.6210103  54.3769932  43.0624199  30.7699966  56.3914776
  43.1644011  30.8488679  57.3932123  42.1095800  29.7287679  55.9037399
  42.6960754  28.9035225  55.4998875  41.3843870  29.0904450  57.1056843
  42.1951294  28.7670302  57.7585220  40.7129049  29.7850204  57.6104403
  40.4966736  27.8635001  56.8816233  39.5937419  28.1956816  56.3693047
  41.1854887  26.7858982  56.1042261  40.4489946  25.9885764  56.0044336
  41.4389181  27.1495366  55.1084137  42.0737505  26.3408685  56.5526009
  40.0764751  27.2278786  58.2583570  39.2337060  26.5538287  58.1050634
  40.9513664  26.7256021  58.6711311  39.7085738  28.0210328  58.9092493
  41.2585115  30.0942349  54.6695757  41.1760378  29.2285061  53.7224436
  40.6590843  31.2742209  54.6104813  40.5345154  32.2521901  55.6846428
  41.5445471  32.5978947  55.9046984  40.0541115  31.7416382  56.5192986
  39.5606589  33.4023809  55.1758766  40.2442217  34.1040683  54.6978807
  39.0809894  33.9186192  56.0074472  38.6763239  32.6296425  54.2431402
  38.0803490  33.2634401  53.5864687  37.8943348  32.0281816  54.7066545
  39.6825361  31.6484880  53.5731554  39.1146278  30.8058023  53.1788635
  40.2641153  32.3626447  52.2819567  39.4711637  32.7636123  51.4641428
  41.5837860  32.6002002  52.2393370  42.1364880  32.3242688  53.0383921
  42.1714163  33.5547757  51.2860775  41.4467144  33.6397314  50.4763269
  42.1625471  34.9845433  52.0031881  42.8157091  35.0321364  52.8745174
  42.4489212  36.2157249  51.1331034  41.9948530  37.1023440  51.5756369
  43.5099888  36.4629722  51.1664534  42.1123886  36.0913897  50.1038408
  40.8835602  35.3421021  52.5516462  40.1985884  35.1536655  51.9059610
  43.6443567  33.2886004  50.7499027  44.1984177  34.0108061  49.8990631
  44.2768669  32.1712303  51.1544418  43.7401772  31.4892507  51.6711330
  45.5223083  31.6400766  50.5978394  46.1466122  32.4577022  50.2375126
  46.2400961  30.8711624  51.7044306  47.2088671  30.6765389  51.2443209
  46.3085032  31.5002465  52.5919437  45.4874134  29.7508907  52.0484066
  45.8281183  29.3628502  52.8576899  45.3482151  30.6673574  49.4049978
  46.3204670  30.1867890  48.8816833  44.0977287  30.3925896  49.0557098
  43.3274031  30.9536767  49.3902016  43.7411261  29.4159150  47.9961777
  42.6520252  29.3881631  47.9617214  44.1193247  29.9889946  46.6706228
  45.1862574  29.9021435  46.4651680  43.5136318  29.4234061  45.9625578
  43.8655472  31.5128255  46.5100145  42.6344156  32.1107554  46.4597225
  42.8820896  33.3882046  46.7391157  42.1250391  34.1541576  46.8203020
  44.1892910  33.6263990  46.7306423  44.5634651  34.4804168  47.1189070
  44.8485756  32.4568892  46.6255951  45.8792353  32.1936083  46.8121958
  44.0168905  27.8994870  48.2970476  44.4615984  27.2594833  47.3477983
  43.6512518  27.3764062  49.4290638  43.1296921  28.0050302  50.0231266
  43.7324858  25.9129453  49.7638702  44.7711658  25.5833888  49.7384834
  43.1027603  25.7074046  51.1567783  43.1543112  24.6526003  51.4266682
  43.6888695  26.5025926  52.3490620  43.7024307  27.5691104  52.1244383
  43.0934334  26.3985109  53.2560968  44.6868992  26.1704278  52.6349020
  41.7265511  25.9831882  51.2617111  41.2922478  25.3262639  50.7126856
  43.0512619  25.0167704  48.6827374  43.4672785  23.8714719  48.5669518
  42.0608521  25.5322456  48.0695152  41.9506741  26.5362120  48.0734253
  41.3728619  24.8566818  46.9816160  41.1386490  23.8830018  47.4119616
  40.0292015  25.5406833  46.6621304  39.6098471  24.9237323  45.8673906
  39.3826604  25.4934835  47.5384092  40.0792933  26.9693732  46.1474848
  40.2330542  28.0256891  47.0069408  40.2129889  27.8258801  48.0681038
  40.4971981  29.3329906  46.4580202  40.7011986  30.1078868  47.1821213
  40.5561972  29.6207929  45.0295019  40.7749844  30.8780932  44.5470524
  41.3113022  31.4285469  45.1223469  40.2310514  28.5397148  44.2414284
  40.2021885  28.7741566  43.1875753  40.0488091  27.2247648  44.7608614
  40.0315428  26.3644600  44.1081953  42.2530842  24.5141339  45.7152176
  41.7980719  23.8440394  44.7978878  43.3810377  25.1405740  45.6233549
  43.5834455  25.8444405  46.3188410  44.4214487  25.0554466  44.5454741
  44.0027475  24.6405172  43.6286163  44.8960543  26.4333487  43.9827919
  45.4186916  26.8494797  44.8440599  45.5679941  26.3031077  43.1344795
  43.8244724  27.4802947  43.5240269  43.1199837  27.5767756  44.3501520
  44.5135832  28.7577987  43.0099154  45.4067326  28.5889482  42.4083567
  43.8318396  29.3498921  42.3993874  44.8431778  29.2969584  43.8980484
  43.0268526  26.8945694  42.3782158  42.3454142  26.1184931  42.7267218
  42.4550533  27.6837993  41.8901014  43.6021137  26.3174224  41.6542864
  45.6660748  24.1759706  45.0728273  46.7427444  24.2970133  44.5660973
  45.4043198  23.3627868  46.0508919  44.4374228  23.3956122  46.3409424
  46.4319181  22.8549242  47.0004511  46.0304499  21.9834733  47.5176430
  47.2661734  22.5118375  46.3885546  46.9680452  23.9162731  47.9787111
  46.6829872  25.1504016  47.8921509  47.8381443  23.3674526  48.8970375
  47.8440809  22.3594737  48.9606571  48.4330893  24.1805816  50.0390100
  48.3782864  25.2519679  49.8460627  47.5139856  24.0151119  51.2573862
  47.4163055  22.9390955  51.4014292  47.8863144  24.5111823  52.1537018
  46.4985991  24.3636966  51.0687828  49.9027395  23.9402366  50.2547359
  50.4355478  23.9752126  51.3683891  50.6406689  23.6668301  49.1804266
  50.2284765  23.5878563  48.2617569  52.1029806  23.6080933  49.1958284
  52.4975967  23.9601564  50.1489496  52.4546289  22.0907855  48.9719248
  52.0625877  21.5329313  49.8223400  51.9498777  21.6260910  48.1249380
  53.8897943  21.7683697  48.9342594  54.1986179  20.6418538  48.5108232
  54.7722006  22.4609113  49.4177389  52.6360369  24.4802976  48.0155659
  51.8604946  24.8140717  47.1327448  53.9339781  24.8080969  48.0679560
  54.6036863  24.3087649  48.6356354  54.4826269  25.8212376  47.1863985
  53.9228773  25.7424164  46.2544250  54.3739176  27.2799492  47.7430010
  55.1270008  27.8650856  47.2151947  53.4131432  27.7662539  47.5740862
  54.6530771  27.4718213  49.2585468  53.9162683  26.9217229  49.8438740
  55.6101418  27.0570040  49.5748711  54.5606756  29.1794443  49.8599100
  55.8947849  30.0165987  48.9234686  55.6259871  30.0543451  47.8678036
  56.0049772  31.0537696  49.2400837  56.8846893  29.5605946  48.9395475
  55.9359360  25.4765177  46.9021034  56.6450548  24.9360895  47.7144241
  56.3204527  25.6737757  45.6080818  55.7338715  26.2715816  45.0435925
  57.5810432  25.1506734  45.0959253  57.6842070  24.1076899  45.3953266
  57.6563025  25.2941966  43.5337019  56.7483759  24.8098397  43.1743002
  57.5912905  26.3494396  43.2684898  58.8664246  24.7347450  42.7356339
  58.6049938  24.9458718  41.6987276  59.7959328  25.1843286  43.0849123
  58.9512491  23.2121134  42.9224777  58.1812859  22.4097419  42.2783566
  59.9085712  22.8532004  43.6323595  58.8869572  25.8943391  45.6470728
  58.9699507  27.0191908  46.0513020  60.0102663  25.1031423  45.6114388
  59.9432993  24.1893530  45.1864576  61.3571072  25.4933858  46.0178947
  61.2528419  26.2141848  46.8288708  62.1402502  24.2432451  46.3865614
  62.2389603  23.6204743  45.4974508  63.1191349  24.6128964  46.6919327
  61.5746927  23.4440780  47.5092363  60.6383038  23.0858779  47.0814848
  62.2433567  22.5837564  47.5381279  61.4921284  24.2105699  48.8234520
  60.4365110  24.1968346  49.5042801  62.4831772  24.8295617  49.2970562
  62.0021391  26.2719870  44.8894548  63.2024717  26.0596442  44.5495367
  61.3327169  27.2271085  44.2675972  60.4816437  27.5421882  44.7108793
  61.8976021  27.9267645  43.1716204  62.2436762  27.1797752  42.4572372
  60.8567953  28.8830948  42.6085567  60.3593636  29.4256806  43.4124613
  61.4834547  29.6701002  42.1890020  59.8069715  28.2648563  41.6428280
  60.3168488  27.4153614  40.5683804  61.3699770  27.2666860  40.3807116
  59.3456078  27.0126867  39.6146059  59.6823359  26.3622689  38.8208961
  57.9735947  27.3879790  39.6909285  57.2734547  26.9751978  38.9797211
  57.5869560  28.1623054  40.7941484  56.5345860  28.3955956  40.8612108
  58.4562206  28.5499096  41.7593145  58.0944967  29.0255690  42.6589251
  63.0281734  28.8499260  43.6865139  62.8623581  29.8552704  44.4513273
  64.2283535  28.5952592  43.1560469  64.3549967  27.7662611  42.5931740
  65.3736401  29.4688797  43.3402634  65.6408548  29.5002174  44.3965387
  66.5387774  28.8191748  42.5568724  66.6444921  27.7850342  42.8847170
  66.3478661  28.7621713  41.4852333  67.7873755  29.5534277  42.7226400
  68.4004164  29.8137188  43.9689827  69.4848156  30.5312490  43.6806154
  70.2459335  30.7087564  44.4259930  69.5762539  30.7348990  42.3650599
  70.4136944  31.0711861  41.9115019  68.5353613  30.0444317  41.7245770
  68.3976555  30.1124859  40.6555557  65.2103758  30.9155536  42.7607918
  64.5142841  31.1906505  41.7488813  65.9486818  31.8560076  43.4059620
  66.4418840  31.5376949  44.2278671  66.0361385  33.2181406  42.9823923
  66.7998838  33.7439823  43.5553646  66.2235260  33.2270694  41.9086552
  64.6990633  33.9859295  43.1433249  63.8157988  33.5795093  43.8713312
  64.4756508  35.1889277  42.4796724  65.2303886  35.4698610  41.8701220
  63.2909727  36.0518956  42.6425838  62.3836756  35.5272460  42.9420090
  63.6368895  36.9924927  43.7822199  64.2683887  36.4627314  44.4954300
  64.2010927  37.8304958  43.3729267  62.4014378  37.6010203  44.5340729
  61.6834402  36.8432593  44.8477221  62.8093004  37.9490352  45.4830885
  61.7003775  38.6543941  43.7289572  62.4122953  39.1757131  43.0890369
  60.9638739  38.1151152  43.1332636  61.0035610  39.6079445  44.6303129
  60.9429646  39.3519592  45.6054544  60.3894567  40.7874489  44.2934847
  59.7581434  41.3715649  45.1912880  59.4142771  40.8912563  46.0105324
  59.3107557  42.2609425  45.0211096  60.2678108  41.2232924  43.0764818
  60.6629944  40.5702114  42.4151087  59.8579025  42.1266317  42.8866148
  63.0438709  36.7161655  41.3021660  63.9286757  37.2537613  40.6199312
  61.8248796  36.7813897  40.7876253  61.0449982  36.3076735  41.2206078
  61.5169430  37.5871587  39.6312094  62.2114420  37.2780895  38.8500261
  60.1107502  37.3909187  39.1352940  59.4109344  37.2565126  39.9600911
  59.5762205  38.4499407  38.1246591  60.3731537  38.6618471  37.4118471
  58.7533426  37.8834677  37.6886797  59.2244768  39.3024898  38.7056351
  60.1155233  36.0532212  38.5135412  59.4526196  36.0523605  37.8191662
  61.6166115  39.0564752  39.9906278  60.9381819  39.5351768  40.8920527
  62.5173807  39.7738504  39.3105555  63.0142641  39.3900990  38.5193896
  62.7016020  41.2618113  39.4905186  61.6966772  41.6609001  39.3528152
  63.2848120  41.4628649  40.8705521  62.5458002  41.1352062  41.6017151
  64.0881681  40.7359648  40.9902859  63.8000250  42.9188538  41.1331177
  64.5693111  43.3032942  40.4634190  62.5772476  43.9220762  41.1570168
  61.8345308  43.5628080  41.8693447  62.9287624  44.9110699  41.4510012
  62.0915699  43.9778233  40.1827955  64.4680882  42.9498148  42.4775219
  64.5408010  43.9291525  42.9505110  63.8892984  42.3254251  43.1581402
  65.4501152  42.4784422  42.5166082  63.6369896  41.8212748  38.3937526
  64.7033119  41.2774801  38.0877113  63.1997681  42.9069138  37.8050303
  62.3612356  43.3841419  38.1037211  63.9201355  43.5087633  36.6525292
  64.8623848  43.0272102  36.3910222  62.9638147  43.4037590  35.4373598
  62.0548630  43.9188004  35.7482266  63.3519030  43.8630486  34.5282197
  62.6229382  42.0136261  35.0113654  63.4804535  41.1600828  34.2913914
  62.6818419  40.1566982  33.9081430  62.9963493  39.2026687  33.5115099
  61.4008713  40.3559875  34.4016433  60.6816244  39.6494722  34.3414235
  61.3892508  41.5225220  35.0615168  60.5463600  41.9851637  35.5533528
  64.2805719  45.0258780  36.7843246  63.8658285  45.7288074  37.7033854
  64.9520206  45.5847692  35.7621479  65.2987862  44.9943495  35.0196791
  65.2731037  47.0139647  35.7553911  65.3938341  47.3822308  36.7741704
  66.5308285  47.3850536  34.9271488  66.2930584  47.3603773  33.8636851
  66.8520641  48.4030151  35.1477385  67.7598667  46.4716768  35.1870704
  67.9759264  46.0431385  36.3312411  68.5624361  46.1440229  34.2685914
  64.1726208  47.7912283  35.0060844  63.6144638  47.2989321  34.0754271
  63.8412857  48.9076805  35.5979991  64.2570114  49.1486263  36.4863777
  63.0999470  49.9858332  34.8743987  62.1856976  49.4627714  34.5939445
  62.7590275  51.1745405  35.7431746  62.3648405  51.9394684  35.0741434
  62.0445967  50.8564758  36.5024686  64.0002298  51.7492437  36.4630485
  64.4295740  52.8112793  35.9215546  64.3980551  51.3628864  37.6088119
  63.7691116  50.5149031  33.5496020  64.9773598  50.7143164  33.3755493
  62.8457069  50.7423496  32.5938439  61.8918085  50.8509159  32.9075265
  63.1147861  51.1629915  31.2399483  62.0805740  51.4034700  30.9936118
  64.0284014  52.3626852  31.0799766  65.0683641  52.0362520  31.0749316
  63.9021778  52.7311563  30.0619411  63.9627028  53.4904766  32.1311474
  62.8754759  53.9084101  32.5362730  64.9843407  53.9916468  32.5957060
  63.6266994  49.9209118  30.3874254  64.0718126  50.1098585  29.2862535
  63.5473585  48.7233305  30.9665942  63.2312155  48.6940861  31.9253945
  63.9272547  47.4535894  30.2705073  64.7863388  47.7021551  29.6473765
  64.2898655  46.3198805  31.2731075  64.9970865  46.7495966  31.9825292
  63.3729982  46.0623598  31.8033361  64.9401331  45.2150583  30.6150198
  65.5311966  45.5755854  29.9499893  62.7796125  46.9880629  29.3874478
  61.6439533  47.2689152  29.7603035  63.0232859  46.3186169  28.2336545
  63.9951515  46.1077261  28.0573106  62.0350456  45.9369087  27.1261501
  61.1081648  46.4765739  27.3204803  62.5433207  46.3572359  25.7381105
  63.5438013  45.9701157  25.5450416  61.6330433  45.7951164  24.6734905
  61.5677738  44.7072458  24.6930289  60.6396627  46.2291336  24.7871804
  62.0960236  46.0545349  23.7214112  62.7539206  47.8566933  25.6461167
  63.5031557  48.1970358  26.3609004  63.0939245  48.0732155  24.6333885
  61.4386463  48.7260914  25.8988380  60.7057333  48.4155893  25.1541781
  61.0225296  48.6306953  26.9017553  61.7896891  49.7125912  25.5960441
  61.8428802  44.4419909  27.1859002  62.7714872  43.6839342  26.8269539
  60.7555151  43.9445210  27.6412034  59.9900818  44.5546198  27.8901887
  60.6102467  42.4635601  27.7810574  61.5408421  41.9274282  27.5948787
  60.2889538  42.1589565  29.2656183  59.3002319  42.6015663  29.3865538
  60.0537634  41.0959530  29.3186688  61.3978338  42.5811434  30.2393270
  61.6738081  43.6265802  30.1014161  61.0508204  42.5145769  31.2704682
  62.6430702  41.7337132  30.2359104  62.6147795  40.4861307  30.0818753
  63.8394642  42.3467302  30.2817869  64.6383476  41.7458057  30.1376557
  63.9926863  43.3254957  30.4783797  59.4403696  42.0373821  26.7974043
  58.8507700  42.9223108  26.2464142  59.0496302  40.7509708  26.7375422
  59.6702242  40.1194620  27.2235179  57.9177952  40.1279926  26.0536933
  57.1581650  40.9036875  25.9569573  58.2275295  39.6971226  24.5808434
  59.0553141  38.9954019  24.6831822  57.0214367  38.9994025  23.9220214
  56.6974354  38.0957937  24.4383693  56.1283064  39.6230507  23.8835239
  57.2663641  38.6694098  22.9124570  58.6470127  40.8176422  23.6931109
  58.9925718  40.4169989  22.7401280  57.8311729  41.5161085  23.5069489
  59.4977188  41.3203382  24.1532087  57.4605751  39.0338111  26.9712448
  58.1951332  38.0786014  27.3006678  56.1951876  39.1475773  27.4065542
  55.5907726  39.8123026  26.9451141  55.6219864  38.3589983  28.5729551
  56.1843586  37.4410272  28.7437391  55.6233311  39.1657901  29.8501062
  54.7558546  39.8253512  29.8263025  55.5000210  38.0342603  30.9531689
  56.2697268  37.2635269  30.9129047  55.4782248  38.3913302  31.9827938
  54.5688152  37.4811602  30.8305478  56.9608021  39.9299359  29.9776745
  57.7606297  39.2254090  29.7495961  56.9141436  40.6390810  29.1512132
  57.2164631  40.5785131  31.3068604  58.1735182  41.0985041  31.2649465
  56.5863705  41.4317513  31.5579987  57.2030592  39.7928405  32.0622730
  54.1837406  37.9740500  28.0878472  53.4888029  38.8403845  27.5604010
  53.7860537  36.6941333  28.2378411  54.6968222  35.5273938  28.5204554
  55.2834892  35.5835366  29.4373918  55.2955866  35.4114461  27.6170444
  53.7113953  34.3906498  28.6743140  53.2335806  34.2602038  29.6452808
  54.1046762  33.4185481  28.3769011  52.5418758  34.7325087  27.8648973
  51.6416645  34.2020869  28.1753373  52.7128172  34.5185280  26.8098640
  52.4941349  36.2472057  27.9076791  52.2080326  36.5155911  26.8907142
  51.5295315  36.7304587  28.9790583  51.8368196  36.8898630  30.1238298
  50.3793859  36.9897246  28.4305644  50.3850460  36.7953396  27.4394631
  49.2592239  37.8196001  28.9971280  49.5546293  38.3772874  29.8858452
  48.8966656  38.9155722  27.9675555  48.9851713  38.4108067  27.0055366
  47.5107288  39.5902991  28.2866740  47.3922062  39.9556684  29.3067503
  47.2694397  40.4257774  27.6295114  46.7068338  38.8807368  28.0907726
  49.9215651  40.0267458  27.9188275  50.8919573  39.6317434  27.6181340
  49.7354984  40.7489491  27.1239042  49.8902273  40.5881214  28.8526249
  48.0040646  36.9048357  29.2780328  47.6947117  35.9666395  28.5374594
  47.2507572  37.2245836  30.3599977  47.7498293  37.8506279  30.9757018
  46.1202860  36.4516497  30.8488679  46.0572815  35.5010009  30.3193355
  46.4363909  36.0411239  32.2718978  46.5491056  36.8835330  32.9543519
  45.5578327  35.5318499  32.6679754  47.7002430  35.1323676  32.5155926
  48.5506153  35.3919411  31.8850446  48.0228090  35.2088547  34.0239620
  47.1823835  35.3167057  34.7096419  48.6167288  34.3615103  34.3665528
  48.6257219  36.0917997  34.2361283  47.3644161  33.6293316  32.2854114
  46.9946146  33.5428882  31.2637115  48.2117844  32.9479814  32.3617983
  46.5988684  33.3513474  33.0098224  44.7784567  37.2312427  30.7277989
  44.2890310  37.7685118  31.6928196  44.1543674  37.2048068  29.5551777
  44.5530081  36.5031791  28.3411264  44.8934412  35.4904389  28.5569119
  45.3817892  37.0216870  27.8590703  43.2985497  36.5674400  27.4191499
  42.6124144  35.7589364  27.6714206  43.4946728  36.5562153  26.3469982
  42.7111864  37.9503131  27.7217126  41.6790342  38.0726838  27.3933959
  43.2042456  38.7145376  27.1209192  42.9482365  37.9971910  29.2715669
  43.1677723  39.0476227  29.4626164  41.6737175  37.5385666  30.0272608
  40.7160759  38.3002806  30.1190805  41.5865803  36.3973761  30.7359529
  42.4465275  35.8697820  30.6886077  40.5872726  36.0109258  31.7532372
  39.5839143  36.3012910  31.4416909  40.5286503  34.4793558  31.8750048
  41.4290810  34.1067958  32.3633957  39.6415401  34.2411351  32.4618459
  40.3654289  33.6032701  30.5851722  39.4194531  33.9461446  30.1660490
  41.1462212  33.7821317  29.8459339  40.1781940  32.1014977  30.6663728
  39.8771191  31.3942122  29.6961141  40.4011631  31.4468575  31.8212414
  40.4609919  30.4452705  31.7057061  40.8167124  31.9831634  32.5694418
  40.8913374  36.6684413  33.0997348  40.0866556  36.4776564  34.0001583
  41.9796848  37.3604751  33.3593917  42.5674820  37.6486111  32.5902534
  42.1860743  38.1912184  34.5620656  41.6937447  37.6930451  35.3972507
  43.7313414  38.3185458  34.9616861  44.3016958  38.7535048  34.1409469
  43.8480520  39.2880368  36.1055136  44.7350454  38.9713454  36.6541886
  43.9167976  40.3393269  35.8259392  42.9980516  39.2478609  36.7866826
  44.2531490  36.9176245  35.2706718  43.6908627  36.4076424  36.0528803
  44.3076849  36.3500142  34.3417239  45.3041267  36.9828558  35.5522776
  41.4423609  39.5272803  34.3763709  41.9123363  40.4363155  33.7010741
  40.2378559  39.5829725  34.9594307  39.9043846  38.7905073  35.4894280
  39.4296885  40.7303953  34.7873807  39.6272635  41.2346220  33.8414311
  37.8833961  40.4009676  34.7183156  37.5904894  39.8294449  35.5990386
  37.2776079  41.2908125  34.5471716  37.5756669  39.3496037  33.5850048
  37.8037906  39.8066235  32.6220965  38.2000542  38.4600925  33.6687613
  35.8433223  38.9948153  33.4915876  35.1381755  40.6207180  32.9000282
  34.1515899  40.2982950  32.5671697  35.1866865  41.2864256  33.7617588
  35.6856632  41.0225105  32.0474339  39.6532989  41.7640877  35.9042621
  38.6947894  42.1018553  36.5941310  40.8742476  42.1917868  36.1430955
  41.5926313  41.9108582  35.4910946  41.2563515  42.9576492  37.3186803
  40.5873489  43.8177347  37.2907257  41.1115122  42.2750330  38.6446691
  41.4156818  43.0130816  39.3868709  40.0535679  42.0409060  38.7631464
  41.9359922  40.9682369  38.7681365  41.4378309  40.1570463  38.2371902
  42.9187107  41.0559034  38.3047962  42.2399569  40.4056883  40.4515696
  43.3589649  41.7100668  41.0470009  42.9959679  42.6933861  40.7479763
  43.6047220  41.6169977  42.1048498  44.3292713  41.5862322  40.5660963
  42.6643467  43.5755062  37.1720243  43.6763096  42.9877710  36.6661143
  42.7955532  44.8853588  37.5806379  41.9716930  45.3989172  37.8592229
  44.0012836  45.6836414  37.5387430  44.4745111  45.4035425  36.5976262
  43.7424612  47.2369623  37.5862861  43.3045530  47.4869108  38.5526562
  45.1443577  47.9383421  37.3734975  45.8532858  47.7545404  38.1808019
  45.5195665  47.5661898  36.4201784  44.9758625  49.0145445  37.3346996
  42.7849674  47.6859760  36.4911699  43.2532072  47.8144932  35.5152941
  41.9404459  47.0187378  36.3189197  42.1571732  49.0107727  36.9530034
  42.9656649  49.7372437  36.8712091  41.2999296  49.2349863  36.3182116
  41.7245150  49.0406895  37.9530072  45.1368570  45.2207136  38.5906935
  45.1257801  45.7842016  39.6830201  45.9323072  44.2264843  38.2701278
  45.7832527  43.7941647  37.3695803  46.8779516  43.6806059  39.2804933
  46.2962198  43.4209108  40.1649380  47.4489403  42.2949839  38.7858009
  46.6506052  41.5611172  38.6753416  47.9680538  42.4802685  37.8454328
  48.5441113  41.7650032  39.7856188  49.3459845  42.4432564  40.0772858
  47.9012966  41.1301804  41.0178995  47.3399401  40.2429390  40.7249975
  48.6472893  40.9597063  41.7941332  47.2987127  41.8668985  41.5491676
  49.3523645  40.6234026  39.0845442  48.6625481  39.7809649  39.1350651
  49.7175837  40.8014727  38.0731058  50.2503586  40.2367830  39.5664430
  47.9306459  44.7199869  39.6930504  48.3567619  45.4904366  38.8323855
  48.2521868  44.7339725  40.9805059  47.8496599  44.0764904  41.6330290
  49.0739727  45.7226086  41.7269564  49.4800472  46.4999676  41.0797167
  48.2641697  46.4970827  42.8470087  47.6904488  45.6950712  43.3114624
  48.9434052  47.3607206  43.9241648  49.3898058  48.2907629  43.5722399
  48.1550026  47.6913023  44.6003532  49.6333504  46.6971588  44.4454861
  47.3193836  47.4610758  42.2504139  46.7774630  47.0132160  41.4174414
  46.6173315  47.7957249  43.0141115  47.8509188  48.2766104  41.7600250
  50.1447392  44.8632526  42.4224901  49.9911880  43.7185621  42.7577448
  51.3841009  45.3578091  42.5949335  51.8256283  46.6159964  42.0656633
  51.4683723  47.4605274  42.6549244  51.5394783  46.7425156  41.0215282
  53.3433008  46.5897465  42.2397327  53.7862349  47.5851297  42.2064161
  53.7515354  46.0205698  41.4045763  53.5465765  45.7070255  43.5391474
  53.4515715  46.2966204  44.4509840  54.4558096  45.1146650  43.4366703
  52.4181938  44.7324753  43.4431028  52.7543020  43.9711142  42.7392101
  51.9610214  44.2206621  44.7775745  51.2338352  44.9159241  45.4884481
  52.4150753  43.1011200  45.2725840  53.0192184  42.5427723  44.6866131
  52.2106838  42.5502872  46.6143417  52.9443979  41.8714142  47.0489597
  52.0819330  43.2958126  47.3990154  50.9626436  41.6185045  46.6244221
  50.6076145  41.0584116  47.6418304  50.2279329  41.5626907  45.5522108
  50.5999899  42.0275879  44.7363949  48.9028835  40.9826517  45.5774212
  48.4954834  40.9677410  46.5883112  47.8521490  41.8985128  44.9346209
  47.8957844  42.7792501  45.5753183  48.0743933  42.2239113  43.9183426
  46.4128065  41.4290714  44.9980068  46.2750387  40.3751469  44.7564173
  46.0556889  41.3515377  46.0249233  45.4483223  42.2503424  44.1463137
  45.7809687  43.0843830  43.2698154  44.1817141  42.2604513  44.5160580
  43.5460711  42.9673576  44.1749573  43.9509487  41.6830921  45.3119898
  48.9137316  39.5002985  45.0856113  49.3620205  39.2878222  43.9786339
  48.4253502  38.5140109  45.8689404  47.9891205  38.7130809  46.7578602
  48.3582449  37.0973349  45.4605865  49.3911076  36.8491578  45.2162409
  47.7265596  36.3398719  46.6293097  46.7148209  36.7272973  46.7492390
  47.6410675  34.8771834  46.3266182  46.6846704  34.7200990  45.8278942
  48.5021687  34.4776797  45.7908916  47.6267624  34.3492126  47.2801065
  48.5351849  36.4144325  47.8327370  48.9237547  37.2920823  47.8513193
  47.3662901  36.9451523  44.2433691  46.3066721  37.5657535  44.3225479
  47.6170492  36.1710978  43.1942606  48.5189724  35.7196426  43.2473803
  46.8727160  35.8855367  41.9432974  45.9256077  36.4172149  42.0349693
  47.7407026  36.5066481  40.8583927  47.8738785  37.5748682  41.0294819
  48.6905098  35.9772801  40.7826424  47.0694780  36.3809371  39.4737673
  46.6176891  35.3928828  39.3857837  45.9042788  37.4674749  39.4441795
  45.1317358  37.2032309  40.1662970  46.2615633  38.4679341  39.6881700
  45.5145025  37.4721885  38.4262633  47.9734945  36.6909337  38.3054519
  47.3110247  36.5909076  37.4456644  48.3519030  37.7098083  38.3879495
  48.7334394  35.9100270  38.2775855  46.6101170  34.3542218  41.7670727
  47.5627327  33.5888863  41.4940262  45.3564215  33.9415956  42.0829630
  44.3135214  34.6133065  42.7884436  43.9338112  35.5007529  42.2821188
  44.6217203  34.8672533  43.8026571  43.1377983  33.6583662  42.9604387
  42.5778913  33.9228892  42.0634270  42.5224829  33.8016462  43.8486719
  43.8240004  32.2651339  42.9147053  43.0847025  31.5572333  42.5399828
  44.2096806  31.9460130  43.8829613  45.0785446  32.5071383  42.0258522
  45.8687115  31.8272257  42.3443699  44.6605635  32.1367931  40.5346966
  43.9840984  32.8937364  39.8761559  45.0861835  31.0035181  39.9442291
  45.6155777  30.4560328  40.6076336  44.8830462  30.6293678  38.6110616
  43.9943886  31.1424065  38.2433963  46.0780001  30.9817362  37.6842093
  46.9284868  30.4645729  38.1284070  45.9531355  30.5872035  36.6758180
  46.4548349  32.3902082  37.5064540  46.5596819  32.9096603  38.4589624
  47.8558397  32.4147606  36.7724895  48.4231710  31.5806866  37.1854758
  47.7516603  32.3086548  35.6926799  48.3779764  33.3623862  36.9047332
  45.4873180  33.2247829  36.6431999  45.3930140  32.8861022  35.6114507
  44.5153904  33.0506873  37.1048737  45.7671642  34.2780280  36.6646075
  44.5444393  29.1673851  38.4585094  45.0216198  28.2147050  39.1392565
  43.7316465  28.9786100  37.4184728  43.3985949  29.7617030  36.8744588
  43.4357166  27.6455259  37.0538282  44.2210245  26.9178319  37.2583961
  42.3337793  27.0978236  37.9853106  42.6844406  27.3032475  38.9967132
  41.3821077  27.6259708  37.9263425  42.0171928  25.5409670  37.7356386
  41.8473196  25.3746819  36.6718769  42.9936934  25.0752234  37.8684235
  40.9652662  24.9735546  38.6241269  40.8191967  25.2327085  39.8066735
  40.0943232  24.1704583  38.0678272  39.4745803  23.7139344  38.7217450
  40.0389576  24.0949059  37.0621777  43.1246233  27.5029564  35.5374122
  42.1020079  27.8654265  34.9766922  43.9654636  26.6275358  34.9577427
  44.5281649  26.0605717  35.5758190  43.7701511  26.1841369  33.6148739
  43.2936049  26.9930387  33.0610871  45.1243353  26.0742450  32.9579067
  45.7295179  25.2742362  33.3843327  45.0196791  25.7776809  31.9142604
  45.9593058  27.4478531  32.9979014  45.2063847  28.2126594  33.1883764
  47.0560408  27.4770546  34.0473914  46.6293097  27.3364663  35.0404859
  47.7883339  26.6958690  33.8434482  47.5176239  28.4586811  33.9403677
  46.4972639  27.7657223  31.5726519  45.6473160  27.6365471  30.9025764
  46.8904066  28.7811470  31.5231228  47.3007154  27.1097064  31.2376690
  42.8474474  24.9404383  33.4023118  42.9760504  23.9935732  34.1642046
  42.1858311  24.8282003  32.2471166  42.2517252  25.6075978  31.6081381
  41.4735222  23.6008525  31.7167187  41.6878366  22.6944280  32.2829056
  39.9663520  23.8993406  31.7894697  39.7233462  24.7653794  31.1738181
  39.4538832  23.1141400  31.2336421  39.3285108  23.9691544  33.1797433
  38.6833334  22.8098297  33.6442971  38.5234380  22.0183253  32.9271126
  38.0899024  22.8603244  34.9172282  37.5518775  21.9842958  35.2481484
  38.2285476  23.9971733  35.6828785  37.6931190  24.0227294  36.6204619
  38.8755369  25.1682711  35.2430892  38.8737082  26.0493135  35.8677173
  39.4763684  25.1372552  33.9786768  40.0221157  25.9687209  33.5576963
  41.9196272  23.3778238  30.2848148  41.5983582  22.3529482  29.7652006
  42.5984716  24.3292522  29.5532537  42.9797268  25.1371384  30.0244927
  42.7741051  24.3817043  28.1173849  42.0864344  23.7028074  27.6130867
  42.4352360  25.7252812  27.5197911  41.4182043  25.9043527  27.8686213
  43.0311584  26.5862894  27.8225160  42.3463917  25.7740879  26.0333395
  43.4450769  25.9116817  25.2021480  42.9106045  26.1201191  23.9788723
  43.4537983  26.2193680  23.0507064  41.5355253  26.0451818  23.9951181
  41.0409927  26.0633421  23.1146598  41.1926031  25.8098793  25.2872586
  40.1935339  25.8265281  25.6971288  44.2270947  23.9978528  27.7392983
  45.2019215  24.5827579  28.1422591  44.4214392  22.9270744  26.9479275
  43.4033918  22.1335220  26.3140750  42.6573467  22.6351261  25.6977081
  42.9331255  21.5560913  27.1100187  44.1021872  21.2790394  25.2865243
  44.1799688  21.9401383  24.4233966  43.5969591  20.3272820  25.1222134
  45.4453802  20.9679389  25.9077621  46.2465858  20.7923841  25.1898885
  45.4059267  20.0482678  26.4914989  45.6835699  22.2469234  26.7649245
  46.0581684  21.8666244  27.7152634  46.7306137  23.1078744  26.0258007
  47.9030895  22.8311157  26.2417388  46.3946819  24.0249038  25.1535249
  45.4134750  24.1921687  24.9821949  47.3050356  24.9300313  24.5687747
  48.1538677  24.3534136  24.2012239  46.5834475  25.6758666  23.3857441
  45.6198025  26.0731697  23.7045550  47.1840000  26.5740609  23.2419324
  46.4762163  24.9764514  22.0171475  46.1979294  25.6629586  21.2175441
  47.4746323  24.6137571  21.7727661  45.4983759  23.8635182  22.0544195
  44.5157290  23.7738132  22.7617025  45.7026291  22.8670001  21.1768031
  44.9340057  22.2217751  21.0627770  46.3248873  22.9489160  20.3854847
  47.9433346  25.9497762  25.5379105  49.1162586  26.2075758  25.4463625
  47.1569681  26.3616109  26.5209222  46.1947155  26.0845280  26.6528368
  47.4788332  27.3604131  27.5181675  47.9711866  28.1926274  27.0150709
  46.2917900  28.0047679  28.2149243  45.6562662  27.1872544  28.5553312
  46.7087030  28.6443090  28.9929199  45.4987860  28.8224483  27.1921659
  46.0959244  29.6479893  26.8048596  45.0553417  28.0884814  26.5192986
  44.1734028  29.4710398  27.8530860  44.0770626  29.5719266  29.1304803
  43.2073832  29.7585940  27.1459556  48.3697605  26.6968250  28.5431409
  49.4427729  27.2019219  28.8727522  48.0406284  25.5093598  29.1112494
  47.1130419  25.2025533  28.8552094  48.8563013  24.6608973  29.9267459
  49.1238642  25.2486086  30.8048725  48.1266069  23.4277749  30.4906201
  47.8951836  22.7378607  29.6791005  48.9316463  22.7279544  31.5522742
  49.9174976  22.3720670  31.2530446  49.1341114  23.4539962  32.3396564
  48.4811926  21.8490124  32.0134234  46.8628788  23.8175416  31.1158299
  46.9901466  24.7469664  31.6708708  46.1354542  23.9294076  30.3118110
  46.3855696  23.0653381  31.7438912  50.2154922  24.3234873  29.3195224
  51.2668562  24.4330263  29.9710846  50.2432966  24.0342355  28.0226922
  49.3484497  24.0719342  27.5558615  51.4933300  23.7865376  27.2001791
  52.0940065  22.9476261  27.5516224  50.9688520  23.4933281  25.7726574
  50.3912067  22.5701308  25.7264829  50.3103256  24.2876649  25.4212689
  52.0568085  23.4175706  24.8829889  52.5604200  22.6023889  24.9417925
  52.4912930  24.9550295  27.1803689  53.6238241  24.7168541  27.5074792
  52.0208979  26.1702633  27.0141482  51.0872602  26.2975430  26.6505194
  52.7544498  27.3954415  27.3100734  53.6830187  27.2968936  26.7477989
  51.9840240  28.5544705  26.7233276  52.0208883  28.3416724  25.6549382
  50.9764719  28.4587097  27.1280241  52.5903511  29.9644589  27.0585012
  53.6793089  29.9252105  27.0315552  52.2811604  30.6646633  26.2824726
  52.0927715  30.6377840  28.6783457  50.3824377  31.1014342  28.2438898
  49.8309755  30.2586055  27.8272009  49.8181343  31.4400506  29.1127968
  50.3569508  32.0085931  27.6401329  53.1339598  27.5254822  28.7924886
  54.2718172  27.8551650  29.0099192  52.2894621  27.3566413  29.7901869
  51.3020420  27.3082304  29.5834112  52.6641846  27.4493170  31.1804342
  53.1552076  28.4222198  31.1588120  51.4539289  27.3895764  32.1056962
  50.8796930  26.5021610  31.8395138  51.8138552  27.2221088  33.6152935
  52.3576164  26.2851429  33.7357736  52.3801327  28.0727506  33.9945555
  50.8959723  27.2126341  34.2030978  50.4464483  28.5893750  31.8970013
  49.8711061  28.5388064  30.9725976  49.7407866  28.7198639  32.7174377
  51.0940170  29.4633651  31.8270016  53.8086033  26.4487290  31.5727377
  54.7057676  26.8801212  32.2448039  53.8602924  25.1995587  31.0823798
  53.0705118  24.9000764  30.5286098  54.9663782  24.3021441  31.3560510
  55.0856400  24.1615939  32.4303508  54.5905256  22.9282236  30.7136464
  54.3293905  23.0731106  29.6653533  55.4717731  22.2919393  30.7951713
  53.5206556  22.2232985  31.5012240  53.7706995  22.1979403  32.5618553
  52.6211119  22.8387690  31.4904046  53.1710768  20.8383179  30.9824276
  52.7234316  21.0250306  30.0062871  54.1339493  20.3398514  30.8706093
  52.2743940  20.0007415  31.7979336  52.3150110  20.0522399  32.8058028
  51.0323381  19.7600675  31.3843656  50.5404758  19.7252059  30.1509547
  51.1879158  19.6616280  29.3783760  49.5495844  19.6141005  29.9900436
  50.1814890  19.4966733  32.3588920  50.3845930  19.5070207  33.3482075
  49.2092466  19.2667925  32.2105932  56.2414026  24.7327566  30.7631540
  57.3166513  24.4827199  31.2536526  56.1366796  25.5767894  29.7267866
  55.2376938  25.8213472  29.3367505  57.2834444  26.2852955  29.1216993
  58.1342459  25.6077123  29.0501261  56.9965363  26.7221665  27.5926661
  56.4546824  25.9330845  27.0712781  56.3726997  27.6156688  27.6169944
  58.3283377  27.0914745  26.9455290  59.3090391  26.3650727  27.1517062
  58.3472347  28.0964971  26.1172581  59.1569138  28.4468818  25.6255794
  57.5156641  28.6660814  26.1818266  57.7592707  27.5138521  29.8829365
  58.9208841  27.5640297  30.2218246  56.7769432  28.3074737  30.2920055
  55.8803988  28.1611681  29.8505259  57.0267391  29.5932841  31.0027909
  57.6242685  30.2085924  30.3301382  55.6501198  30.2824044  31.2235665
  55.1385164  30.3294468  30.2622390  55.1251507  29.6036196  31.8956995
  55.6715536  31.6194248  31.8679452  56.1025763  31.5045786  32.8624964
  56.3387108  32.6354575  30.9919763  56.1002445  32.3682523  29.9624944
  55.9963369  33.6257505  31.2923050  57.4145269  32.6805043  31.1613727
  54.2384958  32.0643878  32.1033955  54.1684628  32.9506397  32.7340651
  53.8010025  32.3284841  31.1406112  53.7541485  31.2219453  32.5971556
  57.8467131  29.3467689  32.2710586  58.7536383  30.0704098  32.5484514
  57.4149704  28.3940315  33.0966473  56.6749573  27.8040218  32.7439785
  57.9276800  28.0014372  34.4019604  57.8451681  28.8385868  35.0951219
  57.1303988  26.8261409  34.9287891  57.0473146  26.1517334  34.0765119
  57.9612160  26.1249733  36.0447168  57.3740864  25.3161526  36.4796829
  58.8829994  25.7105088  35.6365013  58.2851982  26.8964911  36.7432141
  55.7953548  27.2200847  35.3952980  55.8209229  27.6674819  36.3889194
  55.3689480  27.9484272  34.7055173  54.7077703  26.0919118  35.4926729
  55.0061131  25.5111861  36.3655138  53.6836290  26.4578366  35.5657315
  54.7978210  25.4215956  34.6378732  59.4358587  27.7323580  34.2670918
  60.1805878  28.1862402  35.0873160  59.8183012  26.9199419  33.2615662
  59.1085625  26.3210225  32.8644872  61.2163115  26.5176916  33.1180120
  61.6423178  26.0999203  34.0301991  61.3033152  25.4045415  32.0316434
  60.8063030  25.7137442  31.1121488  62.3308992  25.1659155  31.7573571
  60.6033087  24.1033459  32.3334241  59.5147800  24.1286922  32.3840642
  60.7297945  23.4228230  31.4914012  61.0849237  23.3282542  33.5318232
  62.1744394  23.4758472  33.9732218  60.3237295  22.4659014  34.1485929
  60.7771301  21.8355370  34.7944856  59.3339252  22.4692273  33.9476609
  62.1460485  27.6469207  32.5852728  63.3622932  27.6017880  32.6590633
  61.5266562  28.6140037  31.8518472  60.5192041  28.5738850  31.7923975
  62.2142649  29.7703958  31.4331436  63.1953144  29.5259762  31.0258293
  61.4174843  30.4174161  30.2904248  60.3384495  30.4589295  30.4389620
  61.7034960  31.4661288  30.2098060  61.6995382  29.6795845  28.9831662
  62.5704908  30.0820684  28.1947637  61.1739349  28.4844112  28.8855457
  61.2315893  28.0296040  27.9855871  60.6247759  28.0652881  29.6223354
  62.3954439  30.6895089  32.6362062  63.5154533  30.9895515  32.9868102
  61.2699652  31.2355232  33.1317782  60.3518248  30.9415293  32.8306317
  61.2500095  32.5429869  33.7001562  62.2244358  32.8572822  34.0740705
  60.9063864  33.5933161  32.6228094  60.0801516  33.2439446  32.0036411
  60.6945419  34.5608711  33.0778480  62.1245956  33.8925481  31.7181921
  61.9505596  34.0149808  30.4933381  63.2509851  34.1096854  32.2882867
  60.1169777  32.6834869  34.7618818  59.9541426  33.7798285  35.4045391
  59.2149687  31.6427159  34.8309326  59.3699884  30.8935809  34.1714883
  58.0140543  31.5222406  35.6530881  57.2813129  30.9308338  35.1040649
  58.4361172  30.8816838  36.9733238  57.5051641  30.7356787  37.5211453
  58.7907028  29.8642802  36.8082166  59.4791698  31.6928077  37.7978826
  60.4770088  31.6677952  37.3599505  59.1364527  32.7229929  37.8946805
  59.5596504  31.0793543  39.2227125  58.5233116  31.1320329  39.5563722
  59.8225594  30.0241852  39.1478467  60.4872847  31.7736244  40.2557039
  60.0755310  32.3796797  40.9508753  61.8149090  31.8332767  40.2367592
  62.6193428  31.2062955  39.4211388  62.3141479  30.5664778  38.7017012
  63.5775375  31.5246820  39.4453335  62.4173164  32.5876880  41.1196804
  61.7950821  32.9961228  41.8023968  63.3926535  32.4376965  41.3348961
  57.2368336  32.8332663  35.8979917  56.7301226  33.1679940  36.9357014
  57.0855904  33.6624122  34.9099541  57.3141479  33.3662081  33.9718032
  56.5783548  35.0963569  35.0295258  56.1642122  35.2186489  36.0303426
  57.7646828  36.0995960  34.9947453  58.4154415  35.8047128  34.1715407
  57.3456669  37.5336051  34.9974132  58.1732130  38.2164598  34.8051119
  56.4401531  37.7253461  34.4217539  57.0606565  37.8022718  36.0146093
  58.5591555  35.9093285  36.1341691  58.9657068  35.0500846  35.9999609
  55.4820251  35.3966188  34.0282035  55.8568811  35.5987668  32.8745151
  54.1872978  35.5105352  34.3717742  54.0159082  35.4677510  35.3662086
  53.1350279  36.1059690  33.5133791  53.2335854  35.6865096  32.5121570
  51.7762232  35.6011891  34.0386415  51.6601753  35.9521914  35.0640297
  50.9459686  35.9542060  33.4269547  51.6161299  34.0566134  33.9960527
  51.3200283  33.4332538  32.8340816  51.3762808  34.0322185  31.9371557
  50.9932041  32.0752764  32.8095102  50.8193684  31.6786289  31.8201399
  50.7726574  31.4369321  34.0338564  50.4105091  30.4195666  34.0486383
  50.9657955  32.1230340  35.2311802  50.9729147  31.6431570  36.1986899
  51.5092897  33.4208512  35.1995802  51.7612934  34.0150142  36.0655284
  53.1721735  37.6434803  33.5122347  53.5845375  38.2870221  34.4721270
  52.5391102  38.3373976  32.4959779  52.3059940  37.8620315  31.6358709
  51.8661165  39.5961308  32.6430964  52.2363043  40.0063276  33.5826683
  52.3095560  40.5124950  31.5098381  52.0612812  40.0706911  30.5448151
  51.8808317  41.4836264  31.7572403  53.3921194  40.6248808  31.5693045
  50.3298903  39.6442485  32.7208662  49.5751333  38.9355159  32.0858693
  49.9081278  40.5379295  33.6419368  50.6021500  41.0548210  34.1627550
  48.4842825  40.9349823  33.8518763  47.8460884  40.2781057  33.2608414
  48.0459642  40.8604383  35.3244233  48.5934496  41.5982771  35.9108949
  46.5560484  41.1873150  35.4290438  45.9895945  40.5599308  34.7408462
  46.2064838  41.0354424  36.4502382  46.3750887  42.2574997  35.3287601
  48.2236195  39.4440985  35.8408833  49.2506456  39.0892625  35.7548237
  47.8704739  39.4097972  36.8715215  47.6581526  38.7550378  35.2135539
  48.3251047  42.3455429  33.3177233  48.9041138  43.2915354  33.8299346
  47.6895189  42.5277472  32.1705794  47.2815275  41.7280722  31.7078018
  47.3222828  43.8511038  31.6242194  48.2456207  44.4252348  31.7011905
  47.1105337  43.8286877  30.1120377  46.1699343  43.3743334  29.8006892
  47.1563339  44.8331165  29.6911740  48.1259155  43.0524588  29.2814636
  48.0839682  41.9825506  29.4855118  47.8480005  43.2109976  27.8327346
  46.9350529  42.6419926  27.6570678  47.7826405  44.2516279  27.5150800
  48.6475515  42.7637291  27.2421694  49.5529938  43.6298561  29.4558549
  49.5872831  44.6129417  28.9863133  49.8935843  43.6506557  30.4910660
  50.1944256  42.8872347  28.9813161  46.1155796  44.5762110  32.2818279
  45.2675486  43.8562727  32.8542256  46.0820961  45.8768940  32.2195840
  46.8770885  46.2672567  31.7340803  45.2414179  46.7400789  32.9705501
  44.7556734  46.2250662  33.7993503  46.1159897  47.8748655  33.5349703
  46.7313480  47.4051046  34.3022776  46.6515207  48.3686543  32.7241206
  45.3959942  48.5783291  33.9531255  44.1606379  47.2457647  32.0502710
  44.0358973  48.4004831  31.6400456  43.3690834  46.3109970  31.5367770
  43.5542059  45.3641129  31.8355131  42.4730682  46.4742041  30.3849077
  43.1352520  46.9311953  29.6495366  41.8519926  45.2017021  29.8753738
  41.2020445  44.8317337  30.6683350  41.2644482  45.5057478  29.0090847
  42.7031326  44.1169977  29.4356155  43.0740166  44.0669775  28.0873060
  42.9898405  44.9747372  27.5082636  43.6311865  42.9053545  27.5355983
  43.8054943  42.7859020  26.4764714  43.9118576  41.7871523  28.3489823
  44.5979977  40.8077002  27.7813768  44.5737028  40.8439875  26.8223715
  43.7009525  41.9132042  29.7819614  43.9929438  41.1487770  30.4867959
  43.0254507  43.0121803  30.2864218  42.6920652  42.9868412  31.3133669
  41.3716936  47.5426865  30.6164908  40.4881954  47.3756027  31.4372063
  41.3285589  48.5921717  29.7748733  42.0300245  48.6156559  29.0485811
  40.2453423  49.6178675  29.6044922  39.7800422  49.8814201  30.5543041
  40.8840227  50.9156132  29.0117788  40.0870132  51.6587782  29.0358520
  41.6885757  51.2166786  29.6827149  41.3900042  50.7685661  27.6560593
  40.7047129  50.9790087  27.0175505  39.0583944  48.9696312  28.8052058
  37.9445553  49.5324326  28.9151931  39.1734910  47.8251743  28.1256413
  40.0229788  47.4989986  27.6873755  38.0004072  46.9752502  27.7469707
  37.2939110  46.9855928  28.5769463  37.2550535  47.5730896  26.5051317
  37.2402143  48.6582232  26.6069674  37.8053927  47.3430395  25.5928230
  35.8040881  47.1553230  26.2452412  35.2733016  46.2617302  26.8199730
  35.0617361  48.0531740  25.6558776  34.0759015  47.9025221  25.4960775
  35.6035638  48.8476133  25.3470135  38.4651136  45.5093765  27.5525999
  38.7868738  45.0706673  26.4547873  38.2447100  44.6300936  28.5229278
  37.7672935  44.9843836  29.3394160  38.8141727  43.3217478  28.5792613
  39.8270845  43.5851288  28.2747173  38.8456941  42.7077007  29.9690080
  39.2215228  43.4638977  30.6582260  37.4736595  42.2350645  30.3592300
  36.6798854  42.9640055  30.1959348  37.2314048  41.2735844  29.9064898
  37.4403882  42.1547604  31.4457655  39.8707318  41.6124773  30.1389575
  40.8407879  41.9556618  29.7793508  40.0670528  41.3790083  31.1854053
  39.6217847  40.6928778  29.6093678  38.3240366  42.3295212  27.4792314
  39.1398239  41.6559267  26.9108748  36.9870734  42.2650242  27.2282624
  36.4319754  42.9229593  27.7565455  36.4506483  41.3722706  26.1681199
  36.9819617  40.4289532  26.2944579  34.9910235  41.0661125  26.2327075
  34.4594979  41.8935204  25.7626224  34.7400022  40.2264595  25.5845785
  34.3802047  40.7165289  27.5504613  34.5812297  41.5898895  28.1708932
  33.2940888  40.6482410  27.4888659  34.8591924  39.4622707  28.2889819
  35.2725172  38.4812474  27.7203774  34.6423721  39.3622494  29.5501924
  34.9287844  38.5810089  30.1226711  34.0711069  40.0498581  30.0202489
  36.8230557  41.8859529  24.7547650  36.7089891  41.1295128  23.8624001
  37.2563410  43.1636858  24.5926595  37.4807978  43.6969519  25.4205155
  37.8583646  43.6556530  23.3447409  37.4501371  43.0236626  22.5560427
  37.5617957  45.1175642  23.2212949  37.7249241  45.4490328  24.2467785
  38.2432222  45.5535126  22.4907422  36.0827422  45.3783941  22.8514576
  35.4806805  44.8772621  23.6094069  35.8672261  46.4403296  22.7333450
  35.5830789  44.7321510  21.5523624  34.3684983  44.6786165  21.4067101
  36.3633204  44.4443464  20.5913544  39.4171739  43.6568689  23.3002663
  40.0476694  43.8081026  22.2258186  40.0197697  43.5625887  24.4999218
  39.3711543  43.4966421  25.2713180  41.4636564  43.4333849  24.7202611
  41.6273689  43.2629824  25.7843399  42.0886087  42.1907139  24.0179801
  41.7955256  42.0494461  22.9776716  43.1714678  42.3089981  24.0570521
  41.7489672  40.8978844  24.7650862  42.6053143  40.2265882  24.7007918
  41.6210651  41.1185455  25.8248281  40.5199289  40.2034283  24.1897678
  39.7770071  40.9841156  24.0263820  40.7425642  39.7156048  23.2407832
  40.0047922  39.2422581  25.1691747  39.4846272  39.6476793  25.9341311
  40.0685740  37.8780317  25.0834155  40.8328724  37.3528552  24.1160321
  41.1711550  37.9481196  23.3735204  40.6336641  36.4039946  23.8330483
  39.5683575  37.0231009  25.9980106  38.9998245  37.3259902  26.7759109
  39.9224854  36.0788178  25.9430408  42.0447206  44.7881651  24.3767715
  43.1066751  44.9383497  23.7226582  41.4788437  45.8341789  24.9436045
  40.7221651  45.6042719  25.5718398  42.0511246  47.1308804  24.9165368
  42.6941204  47.2114754  24.0400887  40.9397078  48.2648897  24.8457909
  40.3702211  48.2760191  25.7751250  41.3875341  49.2488623  24.7067142
  39.8392248  48.2123137  23.7748504  39.3439484  47.2435570  23.8405871
  39.0884566  48.9479876  24.0633535  40.3464222  48.3935499  22.3090410
  39.6571255  47.9690599  21.3395143  41.4049911  49.0173006  22.0421886
  42.8414631  47.4318743  26.2173533  42.2813940  47.3588991  27.2900414
  44.1201067  47.6605082  26.1039233  44.6169710  47.6053715  25.2263212
  45.0489426  47.8529167  27.2732973  44.5674562  48.3881092  28.0917335
  45.5700302  46.5336037  27.8183460  45.9106731  45.8831549  27.0127511
  46.4428520  46.7218113  28.4435320  44.7892523  46.1033869  28.4455681
  46.2585020  48.7253284  26.8232775  46.7498350  48.6007309  25.7111049
  46.8081760  49.5536757  27.7511668  46.2503529  49.7636461  28.5665488
  48.0492020  50.2904892  27.6516700  48.5835838  50.0044250  26.7457366
  47.6025009  51.7817402  27.4026799  47.0359468  51.6446257  26.4816427
  46.9958687  52.0717287  28.2605886  48.7546062  52.7303648  27.0562172
  49.3707132  52.8023386  27.9525065  49.4393778  52.3985052  26.2757993
  48.4405518  54.2099285  26.7928338  47.3669386  54.5068645  26.1757612
  49.3359184  55.1076746  27.0041704  49.0874863  50.0469351  28.7550020
  50.3036499  50.3950357  28.6485791  48.6678028  49.4386292  29.8745966
  47.6804686  49.2684937  30.0023842  49.6465111  49.2314053  31.0134029
  50.6411839  49.2918062  30.5717278  49.4223309  50.2663279  32.1210217
  48.3706617  50.2282476  32.4049926  50.0318050  50.0416517  32.9963303
  49.6464872  51.7051315  31.7045212  48.7095594  52.4522924  31.0560012
  47.6576328  52.2128534  31.1062217  48.9895773  53.7206507  30.5226517
  48.2002687  54.1586924  29.9297690  50.2059555  54.3137646  30.6999731
  50.3122759  55.3272009  30.3421378  51.1525154  53.6355448  31.4333606
  52.1667957  54.0021515  31.4903331  50.9167814  52.3024988  31.8412137
  51.7214823  51.7324829  32.2816038  49.3944263  47.8097439  31.5631652
  48.5315371  47.0885181  31.0025048  50.0910091  47.3992062  32.6239038
  50.9036684  47.9111290  32.9363370  50.0044298  46.0633659  33.3870459
  49.0278578  45.8919525  33.8398457  50.0962543  45.2507496  32.6664019
  51.0047626  45.8808947  34.5390534  51.8676281  46.7128372  34.8053575
  50.9099960  44.7387934  35.3166318  50.1801348  44.0750742  35.1001239
  51.8858576  44.2768621  36.3849711  52.8571081  44.7608900  36.2825537
  51.2654924  44.4473267  37.8067994  50.3248453  43.8972425  37.8331089
  52.0790720  43.8159847  38.8842607  51.6980219  42.7966166  38.8226891
  53.1528234  43.9686060  38.7753272  51.8202543  44.0358591  39.9200082
  50.9758759  45.7964945  38.0864811  50.0453663  45.8401680  37.8544497
  52.3066902  42.8171301  36.1610842  51.4543676  41.9076347  35.9587741
  53.6199665  42.5439930  36.1463237  54.2019653  43.2364893  36.5955758
  54.1179085  41.0865307  36.1707449  53.7044287  40.6196976  35.2767658
  55.6381750  41.0394478  35.9655786  55.8016253  39.9617910  35.9589863
  56.1069727  41.5742874  34.6269941  55.5990744  40.9654188  33.8790536
  56.0545731  42.6608658  34.5584202  57.1369600  41.2473631  34.4843388
  56.4117098  41.7573214  36.9686341  56.2046289  42.6542473  36.6961670
  53.7823200  40.3563499  37.4305034  53.7058544  40.9553480  38.4860706
  53.7546682  39.0312433  37.3159575  53.7294292  38.7098479  36.3587904
  53.6557674  38.0814147  38.4977651  53.9965868  38.6329842  39.3739581
  52.1806240  37.7659965  38.5900593  51.5276909  38.6199951  38.7702203
  51.9185734  37.3139858  37.6334429  52.0393276  37.0582128  39.4068694
  54.4940424  36.8391871  38.4466577  54.4271708  36.1389518  37.4588799
  55.1692533  36.4797115  39.5965695  55.1001787  37.0200610  40.4470730
  55.9854126  35.2390456  39.7141099  56.4699554  35.1776814  38.7396526
  57.0062494  35.4624820  40.8500147  57.4951267  36.4198184  40.6694412
  56.5196466  35.5234051  41.8234682  58.1160975  34.3921328  40.7632256
  57.7658939  33.4022284  41.0557032  58.5064840  34.2744446  39.7523618
  59.2301512  34.7426414  41.7728996  59.3718386  35.9096694  42.3032475
  59.8835850  33.8622713  42.1987391  55.0115585  34.0562844  40.0722218
  54.2908144  34.1916966  41.0302734  55.0983763  32.8479362  39.4370794
  55.6656837  32.8512073  38.6014652  54.4351101  31.5521479  39.8240614
  53.3810139  31.7469144  40.0216818  54.4953203  30.6360173  38.6049223
  55.5381680  30.7004452  38.2944107  54.2618132  29.1488552  39.0004253
  53.1826162  29.0161920  39.0767789  54.7071028  28.4458375  38.2964492
  54.7499561  28.7259221  39.8784614  53.6136532  31.0632324  37.4219084
  52.5511789  31.0182810  37.6611423  53.7548637  32.1071196  37.1417928
  53.9326572  30.2200365  36.1724210  53.2220030  30.4889011  35.3908944
  54.9766493  30.3397465  35.8828568  53.7166405  29.1891646  36.4530468
  55.1828718  31.0155678  41.0671473  56.3486958  30.7964802  40.9877396
  54.4610071  30.7959104  42.1922255  53.4662104  30.8870125  42.0432949
  54.9618578  30.2754521  43.4520483  56.0446405  30.2619386  43.3275509
  54.8108864  31.3362336  44.5646906  55.5293179  31.0612106  45.3369045
  55.1177359  32.2837448  44.1217852  53.4091330  31.4749074  45.2481270
  53.1291151  30.7413387  46.3768530  53.9026213  30.0924659  46.7603302
  51.9523668  30.8092833  47.0694637  51.6980362  30.2152944  47.9348516
  51.0411549  31.8172622  46.6997623  49.9469090  32.0398569  47.4551392
  49.9247313  31.5087843  48.2545614  51.2786913  32.6474452  45.5550480
  50.5552101  33.3856702  45.2419996  52.4979353  32.4276400  44.7901201
  52.5907516  32.9355025  43.8415098  54.4777441  28.8706064  43.8117123
  55.1301098  28.2269549  44.6341276  53.3394098  28.3206320  43.2552481
  52.8067493  28.9662099  42.6899099  52.7649117  27.0028424  43.3678102
  53.6169910  26.3354659  43.4969568  51.8184566  27.0157743  44.5416403
  52.2029448  27.3317361  45.5114031  50.8582735  27.4975276  44.3570757
  51.5302515  25.9667993  44.6101570  52.1204519  26.5994096  42.0100689
  51.8138266  27.4076128  41.1627674  52.0031166  25.3084302  41.8326902
  52.1125031  24.6873784  42.6216316  51.6380548  24.6550894  40.5245495
  50.8105803  25.2225137  40.0986147  52.7780199  24.7784758  39.5129395
  53.0025101  25.8247495  39.3055391  53.6717939  24.3256426  39.9421477
  52.4553633  24.1299295  38.1936002  52.0690870  24.8797178  37.0449018
  52.0217419  25.9553838  37.1291709  51.8004370  24.2389870  35.8172631
  51.5011597  24.7742200  34.9282384  51.7831421  22.8340149  35.7038999
  51.4263201  22.2338963  34.4975352  51.3771057  21.2822819  34.6142077
  52.2502518  22.1142220  36.8682122  52.2708082  21.0345221  36.8832302
  52.6679230  22.7293396  38.1094146  53.0525446  22.0939040  38.8934374
  51.3596249  23.1229806  40.7104349  52.1894312  22.3488283  41.2465477
  50.2356815  22.6493788  40.3091669  49.6052599  23.3263922  39.9037981
  49.8813868  21.1898160  40.2052116  50.8025551  20.6316042  40.3723860
  48.7665796  20.9623599  41.3136148  48.2179499  21.9030261  41.3610601
  48.0824947  20.1910472  40.9597635  49.5012617  20.7724214  42.6976204
  50.1641989  19.9078524  42.7313566  50.1019049  21.6687489  42.8522825
  48.4820509  20.7988167  43.8901091  49.0526485  20.7381535  44.8168421
  48.0501509  21.7991424  43.8599157  47.4541330  19.7330880  43.7559223
  46.7324877  19.9055064  43.0706501  47.3614645  18.6476219  44.4580126
  46.3571215  17.8821218  44.1273022  45.8113670  18.1078804  43.3079815
  46.1947155  17.0405471  44.6615982  48.0701923  18.4330213  45.5070400
  48.8131380  19.0578461  45.7858276  47.7689981  17.7215624  46.1575842
  49.2523241  20.8905602  38.8136482  48.4709501  21.6915154  38.2850361
  49.4099045  19.7103906  38.2545137  48.9770460  19.6105862  37.3474455
  49.9223042  18.4923255  38.9006281  50.6638765  18.8104463  39.6334076
  50.6283998  17.5210941  37.9670763  51.1082745  16.7906809  38.6184716
  49.8933983  16.9114447  37.4415255  51.6313648  18.2001483  36.9526196
  52.1262407  18.9381433  37.5839376  52.3415327  17.4672532  36.5696812
  50.9447622  18.7082565  35.6745791  49.7646713  18.5081649  35.4422045
  51.6250467  19.3950438  34.8775482  48.7043095  17.7504826  39.5317221
  48.8546658  16.8251371  40.3595638  47.4848604  18.0377328  39.0771127
  47.3457432  18.7875772  38.4149361  46.2627220  17.3536968  39.5251226
  46.1953163  17.2367942  40.6067371  45.0433302  18.1928265  39.0299678
  45.1694679  18.4616220  37.9811931  44.1031981  17.6416504  39.0084934
  44.9192953  19.4944584  39.7758794  45.7945776  20.1267505  39.6269083
  44.0909672  20.0050759  39.2847157  44.5265865  19.3505645  41.2396717
  45.2697039  19.9153447  42.0888042  43.4096766  18.9075994  41.5597248
  46.1497831  15.9451890  38.9413571  45.2363110  15.2269888  39.2875504
  46.9821501  15.5734074  37.9688764  47.7423429  16.1431479  37.6259470
  46.6974688  14.4386470  37.0333362  46.1976719  13.7060964  37.6671219
  45.5516577  14.8195970  35.9826660  45.7046652  14.1796637  35.1136589
  44.5961237  14.5874608  36.4529490  45.3640652  16.2418342  35.4593420
  44.4627094  16.2747705  34.8473144  45.1627493  16.8762875  36.3224983
  46.5425730  16.6824806  34.6285510  47.1618223  15.9564865  33.9075351
  46.9024038  17.9097271  34.6465898  47.7118683  18.1776166  34.1051960
  46.4862871  18.5007274  35.3520465  48.0021143  13.8820493  36.3611341
  48.9718437  14.5639884  36.3423324  48.0200911  12.6381648  35.8216262
  47.1564865  12.1168661  35.7712173  49.1627645  11.9618261  35.2142596
  50.0464058  12.5945377  35.2976608  49.4282722  10.5929649  35.9500623
  49.5147371  10.8174706  37.0131803  48.6200523   9.8685604  35.8494496
  50.7316303   9.9831814  35.5884361  51.7676783  10.6651700  35.3798604
  50.7455587   8.7071657  35.7369161  48.8495731  11.6869485  33.7153196
  48.4438324  10.5685079  33.3727884  49.0296316  12.6483786  32.8372192
  49.5074797  13.4929681  33.1172800  48.5864735  12.5481474  31.3755774
  48.8883114  13.4771836  30.8919621  49.2511654  11.4750123  30.6731701
  48.6954355  10.5490565  30.8210564  49.1862154  11.7962718  29.6336126
  50.6604576  11.0877967  31.0026741  51.0204124   9.8735082  31.6477513
  50.2179193   9.2359233  31.9881845  52.3421621   9.4213748  31.6709638
  52.6133156   8.4261930  31.9911098  53.3581066  10.2539420  31.2569642
  54.3591166   9.8485011  31.2566996  52.9910755  11.5710771  30.8721232
  53.8286114  12.2486281  30.7955933  51.6699839  11.9139266  30.5957389
  51.3989687  12.8781140  30.1916432  47.0704365  12.4006307  31.3360667
  46.4836502  11.6176569  30.5490398  46.3609648  13.0855978  32.2368526
  46.7725992  13.5790503  33.0160594  44.9292517  13.1679463  32.2875619
  44.4033337  12.2136354  32.2592354  44.6060085  13.5717678  33.2470107
  44.3451738  13.9479148  31.0947776  45.0826025  14.4188988  30.1976705
  43.0464411  14.0731108  31.0923004  42.5142193  13.5594344  31.7800331
  42.3417616  15.2482688  30.5242991  42.7340412  15.4324389  29.5241499
  40.8444929  15.0619006  30.3791332  40.4278803  15.1772797  31.3797450
  40.3229237  16.3821721  29.6801305  40.9132099  16.6795373  28.8133883
  39.2854929  16.1455023  29.4438505  40.3275442  17.1284246  30.4746032
  40.2201128  13.8213408  29.7261810  40.4893112  12.9531944  30.3278160
  39.1303611  13.8359213  29.7444296  40.6505060  13.6370504  28.2847452
  41.6294289  14.0942430  28.1405520  40.6937695  12.5698662  28.0671525
  39.9331999  14.1044700  27.6101422  42.7527857  16.4456165  31.3597846
  42.8615379  16.2989271  32.5596452  43.1764030  17.4944639  30.6728625
  42.9231405  17.4151659  29.6983504  43.9392233  18.6005759  31.2230492
  44.7671413  18.1137228  31.7384434  44.5510054  19.3775523  29.9806428
  44.9610806  18.6975491  29.2339563  43.7476492  19.8487949  29.4143844
  45.6041956  20.4027343  30.4302216  45.5597067  21.2350154  29.7277761
  45.3424311  20.6822276  31.4507437  46.9865799  19.7846711  30.4178500
  47.4600077  19.2730784  31.4659667  47.6835251  19.8500729  29.4230771
  43.1550360  19.4990587  32.2680116  42.0456743  19.9153805  32.0598245
  43.9294434  19.6952200  33.3442879  44.7931862  19.1909921  33.4850192
  43.6039257  20.6433392  34.4551516  43.2360983  21.5460730  33.9674306
  42.4148035  20.1103663  35.3766298  41.5150928  20.0607204  34.7633195
  42.6435757  18.7247193  36.0591626  42.9015255  17.9611313  35.3253388
  43.4473848  18.8711596  36.7806482  41.7571211  18.2849228  36.5162039
  42.0758009  21.0853386  36.5048385  42.9179144  21.3100505  37.1593976
  41.6817236  22.0176578  36.1003757  40.9048605  20.7022619  37.4655533
  41.2801409  19.9870443  38.1974888  40.6714392  21.5713120  38.0806684
  40.0281191  20.4034901  36.8909502  44.8338652  20.9598303  35.3248358
  45.5869961  20.0645137  35.7266855  45.0708199  22.2874641  35.4374933
  44.4174147  22.9754066  35.0912309  46.3101530  22.6872182  36.0081148
  46.6016483  21.8447042  36.6352534  47.4327421  22.9812193  35.0055861
  46.9801903  23.3050060  34.0683198  48.4503698  24.0327120  35.4704666
  48.9177132  23.7240458  36.4055705  49.3072891  24.1921043  34.8159552
  47.9476595  24.9968529  35.5467558  48.1088305  21.6883111  34.7089458
  49.0292454  21.8703914  34.1541600  48.3720589  21.1976886  35.6460166
  47.4729490  20.9990740  34.1533256  46.0444975  23.8887691  36.9073486
  45.3209591  24.7564888  36.4910650  46.4474630  23.8465691  38.1667423
  47.1841669  23.1927204  38.3900070  46.1097527  24.8316526  39.1558862
  45.3906870  25.5503583  38.7628150  45.4443932  24.1993117  40.4065037
  46.1950016  23.6098480  40.9330225  45.1596785  25.0727868  40.9930849
  44.1307783  23.3480811  40.2438641  43.5106373  23.9038825  39.5405793
  44.4570494  22.4288535  39.7573757  43.3765554  23.1293893  41.5113544
  43.9022112  22.5113845  42.2392702  43.1225538  24.0989447  41.9397831
  42.0807314  22.3876810  41.2667131  41.3930702  23.0066323  40.6904125
  42.3075962  21.4869475  40.6963491  41.5401983  21.9196057  42.5730705
  40.8447695  21.2181735  42.3621893  42.2718525  21.4397764  43.0775976
  41.2171698  22.7324867  43.0780363  47.4249268  25.5144358  39.6589828
  48.3940268  24.8149419  39.8042274  47.4101448  26.8116331  39.8285675
  46.5703201  27.3270082  39.6067715  48.7014580  27.5790119  39.8334551
  49.4697666  27.0398545  40.3876305  49.2267275  27.8915334  38.4295535
  48.4410048  28.5389805  38.0402565  50.5330324  28.5669518  38.3351016
  51.3720226  27.8740120  38.3985925  50.5662727  29.0186667  37.3436642
  50.5286026  29.4428444  38.9838672  49.3400860  26.7158890  37.4519491
  48.3242226  26.4781547  37.1363449  49.8904610  27.0016503  36.5555501
  49.7823048  25.9305573  38.0649686  48.4217978  28.8230515  40.6868410
  47.4323559  29.4284010  40.4895592  49.3929052  29.2095399  41.5765476
  50.2599716  28.6952257  41.5150309  49.3194818  30.3996062  42.4016762
  48.3948231  30.9344196  42.1846962  49.4290161  30.0762177  43.9135456
  50.4144621  29.6377659  44.0709162  49.4394302  31.0113072  44.4735479
  48.1593370  29.2724848  44.4235420  47.2868633  29.8290372  44.0812778
  48.0819559  28.2958364  43.9457607  48.2177448  29.1338706  45.9537172
  49.2370462  29.2599893  46.3187075  47.7786493  30.0190353  46.4139223
  47.5691891  27.8531504  46.4426756  46.5595293  27.6763964  46.0719395
  48.2154369  27.0402312  46.1115837  47.5787544  27.7253437  47.9457426
  47.0444441  26.9186592  48.2353497  48.5460854  27.6910424  48.2341623
  47.2173929  28.5930586  48.3153200  50.4723644  31.3255286  42.0300770
  51.5867281  30.8658481  41.8402529  50.1699066  32.6173997  41.8010664
  49.2030716  32.8981233  41.8818951  51.1060667  33.6885238  41.4377880
  52.0592785  33.1759095  41.5670919  51.1426210  33.9016604  39.9624825
  51.8582916  34.6704340  39.6711016  51.2665224  32.9140735  39.5181537
  50.1989222  34.3671775  39.6781754  51.0630655  34.9022651  42.4168396
  50.0959015  34.9620843  43.1931162  52.0709515  35.7555628  42.2914696
  52.8192854  35.4474139  41.6872025  52.2661877  36.8970847  43.2071114
  51.2360287  37.0574975  43.5251379  53.1332111  36.4691973  44.4223595
  52.6433516  35.6918788  45.0087976  54.4220924  35.8243465  43.9871931
  54.9745703  35.4811811  44.8618984  54.0950871  34.9642944  43.4028244
  54.9778795  36.5456748  43.3881235  53.4233046  37.6878428  45.3057575
  54.0199947  37.3181176  46.1396408  54.1569138  38.2961297  44.7766924
  52.2188807  38.3647275  45.8149052  51.7250347  38.8692284  44.9844217
  51.4771223  37.7372336  46.3090181  52.5114393  39.0776277  46.5857983
  52.7490234  38.1616020  42.4107885  53.7305784  38.1376481  41.7072630
  51.9449282  39.2703009  42.5533581  51.1882353  39.2100143  43.2196045
  52.2272158  40.5598354  41.9442463  52.0405197  40.4763842  40.8735991
  51.5160704  41.3071680  42.2961855  53.6318874  41.0757875  42.2576141
  54.0501928  41.2610006  43.4263563  54.4362688  41.1985445  41.2046432
  54.0917921  41.0198975  40.2721596  55.7646608  41.9077253  41.2446308
  56.1936331  42.0287561  42.2393370  56.8978262  41.0837984  40.5655622
  56.5756750  40.7740498  39.5713949  57.7879953  41.7104197  40.5102968
  57.2137070  39.6911979  41.2880135  56.5231991  38.9822340  40.8312082
  58.1810904  39.3654561  40.9056997  57.3235273  39.5496416  42.7829075
  57.9097652  40.3718853  43.1931877  56.3086176  39.6076393  43.1762171
  57.7550507  38.2565093  43.3027363  58.0764103  37.6220536  42.5855923
  57.8762436  37.9750323  44.6073532  57.4023294  38.6714911  45.5512810
  57.2026682  39.6193004  45.2651167  57.5977516  38.3748674  46.4967585
  58.4540653  36.8687034  44.9075747  58.8203526  36.4446449  44.0672731
  58.5331726  36.5396619  45.8591938  55.7532215  43.3652544  40.7575035
  55.7336998  44.3611288  41.5115261  55.9137917  43.5161781  39.4667649
  56.0115623  42.6236534  39.0042233  56.4785767  44.7400761  38.7860036
  56.4601040  45.4766989  39.5892143  57.9429102  44.5529890  38.4066987
  58.4795046  44.1043997  39.2427182  58.0342102  43.8458490  37.5822425
  58.7340784  45.8686924  38.1898427  58.5488272  46.1459494  37.1520996
  58.4531403  46.6116047  38.9363408  60.2241516  45.7028818  38.1726408
  60.7258654  44.6305275  38.3076978  60.9566593  46.7520952  37.9436588
  61.9597006  46.6530418  38.0084348  60.4494095  47.6076746  37.7682257
  55.5945778  45.3249454  37.6940060  55.3988838  44.6953440  36.7221999
  55.1135826  46.5160179  37.8893065  55.3052616  46.9296455  38.7905669
  54.4737625  47.5211000  36.9947457  53.4756374  47.1630144  36.7425108
  54.3888998  48.8634729  37.7570415  55.3982544  49.0477562  38.1249070
  54.0014982  49.6979809  37.1725607  53.5888147  48.7351799  39.0374994
  52.5290394  48.7142229  38.7834597  53.7685823  47.8302240  39.6178794
  53.8598680  49.8957634  39.9625874  53.3308315  49.6980476  40.8948612
  54.9195290  49.8932505  40.2179623  53.6538267  51.2263584  39.4873810
  52.7019548  51.5137053  39.3099618  54.4253254  52.1121168  38.9771938
  55.7278824  51.9892263  38.8152719  56.2612724  51.2622023  39.2702770
  56.1688662  52.6955366  38.2436419  53.9862251  53.3045626  38.6751509
  53.0871391  53.5505199  39.0640545  54.6938705  54.0036631  38.5002089
  55.1699066  47.7534628  35.6787467  56.4430904  47.8703403  35.6571364
  54.4187832  47.8427553  34.6278071  53.4848404  47.4725533  34.7317767
  54.9350595  48.1069613  33.2186460  55.7222557  48.8539076  33.3210778
  55.5363750  46.8622351  32.5029159  56.0247326  47.1389532  31.5685511
  56.3866997  46.4493561  33.0456758  54.4831419  45.7702160  32.1612048
  53.4844780  46.0336733  31.1574531  53.5174465  46.8631268  30.4665709
  52.3529387  45.2761936  31.0773969  51.5674782  45.5199909  30.3773880
  52.2977448  44.0964651  31.8689990  51.3677597  43.5473728  31.8647361
  53.2888794  43.7234879  32.7282333  53.0214930  42.9107952  33.3873510
  54.4146299  44.5816183  32.8894114  55.1899672  44.4235659  33.6244440
  53.9154959  48.8489914  32.3830914  52.6819801  48.7297153  32.5975943
  54.3427944  49.4462729  31.2375474  55.3290176  49.3688917  31.0338974
  53.5690737  49.9588346  30.1339197  52.5873899  50.0874949  30.5898261
  54.1547441  51.3128996  29.7029185  54.3629837  51.9208813  30.5833125
  55.1302338  51.0973501  29.2669606  53.3430529  52.0817518  28.6516285
  52.9615879  51.3747644  27.9149079  52.5016165  52.6390743  29.0633035
  54.0566349  53.0924320  27.7746391  54.2224789  53.9488173  28.4282422
  55.0179386  52.6299000  27.5509071  53.2195520  53.4476614  26.5334296
  53.7737322  54.0233421  25.7920933  52.8000212  52.5239897  26.1347771
  52.0282984  54.1636562  26.8469238  52.2171164  54.9661541  27.4304032
  51.6861820  54.5865250  25.9959006  51.2812471  53.7187004  27.3607635
  53.5904789  48.9423895  28.8760853  54.6771240  48.4706688  28.4192967
  52.4275255  48.6389637  28.3087468  51.6332340  49.2379904  28.4830141
  52.3490429  47.9400396  26.9434547  53.0560589  47.1110153  26.9126511
  50.8871269  47.5282097  26.6057420  50.3297806  48.4644985  26.6344380
  50.6722546  46.9043970  25.1683664  50.8494663  45.8288956  25.1698160
  49.6178532  47.1178246  24.9929214  51.1800098  47.4860239  24.3989563
  50.1762199  46.5997791  27.6293182  50.1575184  47.0971346  28.5990548
  49.1711378  46.4236164  27.2460771  50.8467913  45.7409906  27.6597643
  52.8226519  48.9163637  25.9074497  52.5454903  50.1523876  25.9078550
  53.5969448  48.3108234  24.9404955  53.8298702  47.3325777  25.0347686
  54.0916538  48.9126253  23.6981535  53.6634970  49.9113035  23.6120009
  55.6662893  48.9391375  23.5623407  56.0226583  47.9314089  23.3488536
  55.8376217  49.6177435  22.7267289  56.4511013  49.3497324  24.8396730
  56.2913895  48.7047911  25.7037544  57.9365635  49.4080496  24.4501281
  58.0040359  49.9151802  23.4876466  58.4253883  49.9357700  25.2690673
  58.4385681  48.4558296  24.2787147  55.8999634  50.7370281  25.2649617
  54.9542809  50.5985737  25.7890034  56.5869427  51.1704636  25.9917998
  55.8310795  51.3675785  24.3785310  53.3775473  48.2920408  22.4795580
  53.0201340  49.0537262  21.6615915  53.1826401  46.9825745  22.4656725
  53.5476160  46.4247894  23.2244682  52.5559378  46.1688995  21.4249110
  51.7323780  46.6836214  20.9300256  53.5294962  45.8934212  20.2845216
  53.8876867  46.7766237  19.7556043  54.4511652  45.4500628  20.6614280
  52.9694366  44.9571991  19.1917491  52.5406647  44.0573740  19.6328497
  52.1322632  45.4999018  18.7527597  54.0373230  44.4882011  18.1887436
  53.6814499  43.5561514  17.3889303  55.2146912  44.9118090  18.1501412
  52.0041752  44.8867416  22.0543957  52.7438593  43.9728117  22.4934649
  50.6721020  44.7625542  21.8245554  50.1147366  45.4219627  21.3005066
  49.8214579  43.6500549  22.1504664  50.2115393  43.1188583  23.0186629
  48.4501600  44.2748833  22.4965596  48.7290621  44.6839046  23.4676480
  48.0909204  45.0096416  21.7760229  47.3922873  43.2049370  22.8097653
  47.8889799  42.3469639  23.2628417  46.2976503  43.7631178  23.7635541
  45.8163548  44.6137619  23.2809997  45.5102825  43.0653620  24.0486741
  46.8073702  44.1614819  24.6408176  46.6267490  42.6642418  21.5600371
  47.2933483  42.3401022  20.7608652  46.2221575  41.6776466  21.7859459
  45.8321238  43.3824539  21.3579440  49.7762203  42.7078390  20.9048724
  49.6227741  43.1521416  19.7396863  49.9403954  41.3995171  21.1775374
  50.3281355  41.1467123  22.0752311  49.9766445  40.3307724  20.1513314
  49.4836187  40.8111286  19.3061721  51.4522839  39.9372029  19.8871446
  51.8664217  39.6902776  20.8647037  51.4742565  39.0440369  19.2627454
  52.3139906  41.0617161  19.2877245  51.8429375  41.3181257  18.3387983
  52.3009014  41.9424582  19.9297738  53.7303972  40.5062580  19.2673671
  53.8888168  40.0611687  20.2496600  53.8073540  39.7026086  18.5350180
  54.6903896  41.5595818  19.0138650  54.3266153  42.3874617  18.5639846
  56.0119200  41.5500784  19.2309284  56.6509247  42.6673031  19.1188908
  56.1724615  43.4484768  18.6935210  57.5673962  42.8226805  19.5139062
  56.6696978  40.4816103  19.6828985  56.2468958  39.5657611  19.6323586
  57.6496506  40.5260897  19.9233401  49.1878843  39.0403533  20.4894185
  49.0083313  38.7122536  21.6147232  48.8633204  38.2495975  19.4965208
  49.0375805  38.5684371  18.5541439  48.4510851  36.8626738  19.5882082
  47.7023029  36.7142224  20.3662753  48.0936098  36.3007641  18.2430887
  47.7954674  35.2872014  18.5112584  46.9689655  36.9767594  17.4756956
  46.2455511  37.3461533  18.2025504  47.3519564  37.7231741  16.7797911
  46.4866114  36.1421990  16.9668317  49.1858244  36.1490750  17.3783541
  49.3083620  36.9993210  16.9497859  49.6377897  35.9853101  20.0840592
  50.8024120  36.3709950  19.9434900  49.3643236  34.7729802  20.4547811
  48.4181309  34.4249034  20.5152631  50.3640604  33.7283444  20.7799482
  51.0561180  33.7939358  19.9403894  51.0135078  33.9423132  22.1588826
  51.4102364  34.9573231  22.1803856  50.1470184  33.8725495  22.8164744
  52.1023941  32.9644990  22.6337314  51.7253494  31.9645548  22.4191284
  52.9149961  33.0517149  21.9125032  52.6142073  32.9817843  24.0946817
  51.8427086  32.9693222  25.0282073  53.8629484  32.7009010  24.4057059
  54.1499186  32.5038028  25.3538108  54.4565248  32.3075938  23.6894083
  49.6830034  32.3377037  20.5058551  48.5962391  32.1119714  21.0452437
  50.3572941  31.4615917  19.6681297  51.1826229  31.8169498  19.2069852
  50.0363874  30.0604486  19.5120060  49.4313478  29.6759272  20.3330898
  49.0348864  29.9003410  18.3069789  48.0580187  30.2733588  18.6147010
  49.4376087  30.4352689  17.4468815  49.0215206  28.5573769  17.8967774
  48.2911396  28.0835938  18.3013427  51.2826443  29.1050410  19.3407083
  52.3062849  29.4470453  18.8007736  51.3133097  27.9749751  20.0678587
  52.1750259  27.4591660  19.9606800  50.4867935  27.6637316  21.2930179
  49.4349670  27.6800179  21.0075474  50.8227158  26.2363768  21.8160582
  51.8656874  26.2405992  22.1327519  50.2709961  26.0561800  22.7386832
  50.4243803  25.1366282  20.7707143  51.1698532  24.1198897  20.7445168
  49.3651009  25.3354454  20.1754594  50.6336784  28.6657286  22.4605012
  51.7744207  29.1620517  22.6032448  49.5766115  29.0703464  23.1519675
  48.6842155  28.6023188  23.0835748  49.5341969  30.0896215  24.2013335
  49.6986389  29.5805645  25.1510286  50.2786446  30.8679342  24.0336347
  48.1656837  30.7014132  24.2017055  47.1825171  29.9718499  24.1893673
  48.1470966  32.0153737  24.2816758  49.0094519  32.4765420  24.0291643
  46.9764519  32.8030753  24.3224120  46.3146544  32.3913336  23.5604429
  46.2580252  32.7519393  25.6515527  45.9958410  31.7094994  25.8323455
  47.1023273  33.0106926  27.0337939  47.3280239  34.0714931  27.1427107
  46.5051651  32.6495481  27.8710961  47.9855013  32.3721075  27.0160174
  44.9236965  33.5720706  25.6592798  44.5087862  33.6290789  26.6656113
  45.1674318  34.6265483  25.5297661  43.7602377  33.2664967  24.7275829
  44.1135597  33.1965661  23.6988115  43.2642031  32.3305511  24.9845910
  43.0731297  34.1124010  24.7481680  47.3078346  34.1484880  23.7717628
  46.9342566  34.5242262  22.6821637  47.9586411  34.9915457  24.5233178
  48.3041525  34.6279979  25.3999901  48.1764603  36.4531565  24.2661667
  48.2767057  36.6006708  23.1908512  46.9861507  37.2994781  24.7991443
  46.0421848  36.8179226  24.5439386  46.9730616  37.2874045  25.8890033
  46.9898176  38.7601733  24.2979288  47.6555490  39.4595790  24.8036337
  47.3808432  38.7546325  23.2804966  45.5809212  39.3924713  24.3068886
  45.2283955  40.1803255  25.2052283  44.7765636  39.1694021  23.3528447
  43.9378786  39.7317600  23.3313084  45.0124550  38.5466576  22.5934720
  49.4966793  36.8105817  24.8892474  49.8488045  36.2345791  25.8825040
  50.2312517  37.7711415  24.3052149  49.7619438  38.1026316  23.4745717
  51.4581299  38.3455515  24.8291922  51.5822124  38.2372665  25.9066796
  52.5800657  37.5323629  24.2564917  53.5250235  37.6756358  24.7805452
  52.2906637  36.4838505  24.3269587  52.8404331  37.6986575  22.7696443
  51.8858957  37.5006199  22.2820592  53.1824350  38.7162781  22.5810170
  53.8505363  36.7022157  22.2711396  54.9631310  36.6784286  22.7690101
  53.5852051  35.9696674  21.1887980  54.2005777  35.3130484  20.7302451
  52.7347326  36.0803127  20.6553555  51.6081381  39.8823905  24.5004344
  51.0098028  40.4203272  23.5501599  52.6036978  40.5273819  25.1396227
  53.0995035  40.1307297  25.9250832  52.9805899  41.9180775  24.8606348
  52.6651525  42.0045567  23.8208652  52.0815945  42.8624344  25.7350922
  52.3244810  42.8467798  26.7975712  52.2106314  43.8814640  25.3703547
  51.0091019  42.6680517  25.7442045  54.4289351  42.2692633  25.0207734
  55.0554609  41.7981911  25.8727980  55.0017071  43.1204414  24.1756845
  54.2883778  43.6079025  23.6525750  56.2280178  43.8556910  24.4051528
  56.8703413  43.1692219  24.9567747  56.7393303  44.5039511  23.1704593
  56.8315029  43.8511467  22.3024440  56.0267735  45.2640343  22.8500891
  58.1939077  45.1293182  23.3383012  58.1661415  45.9555769  24.0486741
  58.9109707  44.3413544  23.5685873  58.5462713  45.7375956  21.9918561
  58.5478401  44.9388981  21.2501168  57.7480364  46.4394426  21.7503405
  59.9203634  46.4798498  22.0269942  60.0844002  46.9084215  23.0156898
  60.7188129  45.7946587  21.7422247  59.9643373  47.5153446  21.0081840
  59.1161728  48.0376148  20.8410048  60.7587433  48.1329298  21.0954070
  60.0913095  47.0090771  20.1435041  55.8341646  44.8864555  25.4343653
  54.8261642  45.6187201  25.2579641  56.6883516  44.9667215  26.4548922
  57.5229073  44.4038725  26.5374875  56.4546013  45.8752728  27.6000571
  55.6698132  46.5841961  27.3361778  56.0437775  45.0743294  28.8702393
  55.8845806  45.8585787  29.6103096  54.8037767  44.2742443  28.5162354
  55.0436878  43.6231756  27.6756096  54.3907976  43.6931801  29.3408084
  54.0021992  44.9378967  28.1919932  57.1457338  44.1562796  29.4734073
  57.4354219  43.4518099  28.6937261  58.0805302  44.6801329  29.6729898
  56.7288923  43.6584473  30.3489113  57.7642632  46.5946150  27.9070711
  58.8009596  46.0302782  27.6695943  57.5886536  47.8541422  28.3528209
  56.6358805  48.1890726  28.3407044  58.6421871  48.6618423  29.0122175
  59.6406412  48.2351542  28.9166927  58.6446381  49.9640751  28.3742833
  58.9215517  49.8317480  27.3283839  57.6538801  50.4184818  28.3700085
  59.5962858  50.9961224  29.0920687  58.9465237  51.6201353  29.7056818
  60.3362894  50.4484081  29.6755981  60.5114889  51.8704128  28.2902217
  60.8940792  51.5649796  27.1444392  61.0214472  52.9312277  28.9420509
  61.5148401  53.6252022  28.3988571  60.5652523  53.1782579  29.8086357
  58.3063650  48.6914635  30.5565524  57.3910809  49.3180847  31.0667229
  59.1265011  47.9975748  31.3031721  59.7473955  47.4139452  30.7609892
  59.3339109  47.9683733  32.7748227  58.4616566  47.4510670  33.1744242
  60.4470682  46.9363403  33.1154013  61.3326120  47.3424768  32.6265574
  60.6146526  46.8525362  34.6388602  61.3712168  46.1410522  34.9697661
  60.8397198  47.7968311  35.1345944  59.7409678  46.5350199  35.2080369
  60.2911520  45.5607700  32.4829888  60.4891920  45.6413221  31.4141607
  61.0321283  44.9199677  32.9609442  58.9819860  44.9268770  32.8462052
  59.1356230  43.8876486  32.5555086  58.8053417  45.0757694  33.9114404
  58.1832123  45.2593517  32.1832418  59.4326353  49.3493748  33.4501791
  60.1211214  50.2143431  32.9343629  58.6601686  49.5098305  34.6119666
  58.0606699  48.7496090  34.8996544  58.7900496  50.6753540  35.5356479
  59.6006441  51.2850142  35.1364470  57.4398184  51.4138842  35.5777431
  56.7571783  50.8443546  36.2084079  57.5816631  52.3799133  36.0622740
  56.8103695  51.6517401  34.1329503  56.6770363  50.7835293  33.4875512
  55.3614092  52.1834564  34.4035769  55.3161478  53.0872154  35.0112581
  55.0088453  52.5872183  33.4544873  54.7177124  51.3427973  34.6625066
  57.5486422  52.7358818  33.3594680  58.4921789  52.2931004  33.0404305
  56.9676876  52.8744555  32.4476624  57.5763607  53.6745262  33.9128971
  59.2700100  50.1882267  36.9244218  59.2513418  48.9498425  37.0935965
  59.5642424  51.0230112  37.9729056  59.7269154  52.4135780  37.8759909
  58.7419510  52.8401327  38.0656910  60.1407623  52.7561569  36.9275832
  60.6555939  52.9004622  38.9530993  60.3143311  53.8882446  39.2628288
  61.6885662  52.8578377  38.6077642  60.4713249  51.8872929  40.0256920
  59.5945501  52.2655869  40.5512953  61.3104057  51.6825438  40.6906128
  60.0281620  50.5547857  39.3077445  60.8986282  49.9099302  39.1871166
  58.8518476  49.8700666  40.1249504  59.0725422  48.9227724  40.9618950
  57.6849937  50.2998066  40.0513697  49.5839834  64.3156862  62.9811049
  50.5109882  64.6934080  63.1155920  49.0998077  64.3827772  63.8649464
  49.0574074  64.9223042  62.3688698  49.5515108  63.0189610  62.3743534
  49.9218845  62.2825146  63.0874920  48.0989647  62.5534153  61.9681215
  48.0844879  61.4700747  62.0875120  47.4255848  62.9086256  62.7481794
  47.4605560  62.8812361  60.5954027  48.1110620  62.5336313  59.7928333
  46.4419174  62.4985600  60.5318403  47.2429943  64.3679237  60.3369427
  46.8233871  64.7366428  59.1965532  47.5553417  65.2045727  61.2178659
  50.4446936  62.8673887  61.1173582  50.6312609  63.8706446  60.3506327
  50.8809233  61.6841078  60.7743740  50.9013081  60.9922123  61.5098810
  51.5416861  61.3283014  59.4924641  51.9522381  62.1893644  58.9650917
  52.7699947  60.4142809  59.6800327  53.1514645  60.1681614  58.6890745
  53.8467932  61.1765623  60.5204916  53.5997295  62.2378302  60.5481911
  53.7475920  60.7378531  61.5133619  54.7914505  61.0246658  59.9983311
  52.5823402  59.1395903  60.1805401  53.4488535  58.7725830  60.3704548
  50.5362797  60.6084585  58.5662699  49.4123888  60.2578306  58.9397049
  50.8909798  60.5103540  57.2669029  51.7056465  60.9675121  56.8829441
  50.2686930  59.4673204  56.5180922  49.2112017  59.7297335  56.4872837
  50.8820152  59.4820023  55.0492048  50.5206394  60.4052067  54.5962143
  51.9691801  59.4045496  55.0620556  50.3542662  58.2426453  54.2151165
  50.3595352  57.3278904  54.8078108  48.9416933  58.5669756  53.8182449
  48.2550764  58.3862495  54.6452856  48.9635706  59.6082020  53.4965706
  48.6955166  57.9672146  52.9420137  51.2219477  58.1252813  52.9991817
  51.3582087  59.0936708  52.5177765  52.1942902  57.7703476  53.3407497
  50.8448172  57.3081875  52.3841667  50.1975060  58.0824089  57.2678852
  49.1986179  57.4281740  57.2119522  51.3342524  57.6390696  57.8104925
  52.1263027  58.2657385  57.8173351  51.3869667  56.2685871  58.3332729
  51.0052252  55.5938721  57.5670290  52.8322458  55.8446598  58.8103676
  53.5672092  55.9191132  58.0088758  53.0170584  56.4684391  59.6849251
  52.8441620  54.3102169  59.2554712  53.7484789  54.1100836  59.8301506
  52.1132326  54.1452456  60.0470686  52.6932001  53.0720091  57.8996944
  52.9686022  51.6513824  58.8741636  52.5992966  50.8026457  58.2985163
  54.0430069  51.6161823  59.0544748  52.4608374  51.7482805  59.8337936
  50.3632879  56.1618376  59.4905710  49.6721554  55.1538277  59.7000504
  50.1255226  57.2830963  60.2309752  50.7221794  58.0729628  60.0304461
  49.0897894  57.3868990  61.2905884  49.3008232  56.6161823  62.0319128
  49.2511082  58.6275339  62.1312332  49.1203737  59.5114040  61.5069151
  48.3916759  58.6266327  62.8016663  50.3882265  58.8358498  63.0711174
  51.2271452  57.9160166  63.3750629  50.5088091  60.0230026  63.4674406
  47.6526117  57.0851898  60.8683920  46.8995047  56.1497211  61.3591528
  47.3081589  57.7346182  59.7529650  47.9586554  58.3665466  59.3084145
  46.1062860  57.5427723  58.9271927  45.2070045  57.5279903  59.5429659
  45.9283447  58.7262774  57.8984308  46.8976688  58.7185907  57.3999786
  45.0832081  58.5712719  57.2277451  45.8487892  60.1026678  58.5333395
  44.9132872  60.2213144  59.0800190  46.6949654  60.3340578  59.1802883
  45.8394051  61.2385988  57.5460196  45.7013845  62.0705032  58.2366610
  46.8100166  61.3455820  57.0616913  44.7216368  61.1645985  56.5387106
  43.8078308  60.8851862  56.8658113  44.8178673  61.3697577  55.2463293
  45.8355284  61.8750381  54.6669197  46.4905643  62.4136782  55.2154589
  45.6755161  62.1729660  53.7152195  43.8956499  61.0721874  54.3610477
  42.9485464  60.8269405  54.6119499  44.1117191  61.3457870  53.4131241
  45.9373856  56.2311745  58.1482267  44.7869778  55.7840729  58.0018139
  47.0649767  55.5856180  57.7024031  47.9506254  56.0631514  57.7900648
  46.9548941  54.1564274  57.2422123  46.1965609  54.1573381  56.4592505
  48.2553053  53.6258125  56.6165924  48.9909554  53.6834431  57.4188423
  48.1702662  52.1372986  56.2897539  49.0845776  51.6451073  55.9582710
  47.8769016  51.6176367  57.2018909  47.4294329  51.8599415  55.5398560
  48.8024759  54.3804312  55.3520727  48.0643463  54.2333412  54.5636368
  48.8010788  55.4289484  55.6499100  50.2758408  54.1255522  54.8465061
  50.4212475  54.9429512  54.1402388  50.9377003  54.3052578  55.6937027
  50.3792334  53.1346321  54.4043684  46.3483620  53.2440519  58.2870913
  45.3583336  52.5569201  58.0553627  46.9980812  53.1989574  59.4973421
  47.9388142  53.5521841  59.5990753  46.5648937  52.3833847  60.6393385
  46.6795111  51.3237476  60.4110098  47.3517466  52.6535749  61.9601154
  47.2040606  53.7046099  62.2083569  47.0304966  51.9743824  62.7497959
  48.9028025  52.3891068  61.8548918  49.0452099  51.4191484  61.3784456
  49.3352890  53.1225061  61.1743116  49.5294428  52.5480747  63.2386923
  49.7879457  53.5650921  63.5335779  48.9862013  51.9865084  63.9987183
  50.9530020  52.0063448  62.9419899  50.7176685  51.0740900  62.4285460
  51.5029287  52.6961756  62.3018265  51.7226410  51.6959476  64.2146444
  52.2869396  52.4866152  64.4912529  51.0843372  51.5080738  64.9744940
  52.3471594  50.9086704  64.1132784  45.0871897  52.7110481  60.8619070
  44.3024111  51.7679501  60.9656620  44.6961832  54.0071154  60.8818769
  45.4599667  54.6669102  60.8443785  43.3576250  54.5246172  61.1982822
  43.0990076  54.0996408  62.1681356  43.3539438  56.0285091  61.4409351
  44.1907215  56.3352585  62.0684814  43.5981417  56.5785551  60.5321312
  41.9988489  56.4798546  61.9439220  41.1818218  56.2342358  61.2655115
  41.7778730  55.7665157  62.7379131  41.8730307  57.9442263  62.3939085
  42.6862001  58.1885576  63.0773926  42.0108747  58.5748053  61.5155745
  40.4244184  58.0783367  62.9602766  39.7530580  57.8892612  62.1226406
  40.1711941  57.4150562  63.7873459  40.2066135  59.5130825  63.4462404
  41.0059643  59.8515940  63.9625263  39.8177242  60.1211357  62.7397442
  39.4648719  59.5480728  64.1308498  42.2592974  53.9440727  60.1985216
  41.3135052  53.4171009  60.6980705  42.4436045  53.9949799  58.8834381
  43.2483673  54.5311213  58.5918713  41.5205383  53.5652018  57.9049015
  40.6033134  54.0512371  58.2374048  41.8343449  54.1124725  56.4896202
  41.9825411  55.1900959  56.5593243  42.7467537  53.5953188  56.1927032
  40.8446217  53.6399031  55.3312349  41.2546539  53.8631630  54.3462849
  40.7562399  52.5558805  55.2591848  39.4398522  54.2419720  55.4671240
  39.1016173  55.1504898  54.7341585  38.5959172  53.7291622  56.3728189
  37.6539850  54.0670633  56.5095186  38.7764168  52.9673672  57.0109367
  41.2458181  52.0542431  57.9784250  40.0919867  51.6802073  57.7419472
  42.2527361  51.2542057  58.2220840  43.1294823  51.6694498  58.5031414
  42.0793438  49.8054409  58.4367752  41.4764929  49.2878294  57.6906204
  43.4353018  49.0911198  58.3611774  43.8889980  49.3362713  59.3214703
  43.2337284  48.0200529  58.3442307  44.3975353  49.3102884  57.2291899
  44.3589115  50.3464651  56.8931007  45.7966232  48.9145899  57.6927757
  45.9448147  47.8420734  57.8186750  46.6079187  49.2850113  57.0661259
  46.0361385  49.4117451  58.6327648  44.0795374  48.6190414  55.9706259
  43.0292082  48.7680101  55.7201958  44.6753454  49.1215134  55.2086306
  44.3542767  47.5655890  56.0242033  41.4655733  49.4740868  59.7780514
  40.6084204  48.6062336  59.8101759  41.7385721  50.2268028  60.8490324
  42.5665140  50.8043528  60.8166552  41.1330843  50.0855207  62.1956778
  41.3133430  49.0798903  62.5755739  41.6249704  51.0814333  63.2048845
  42.6969051  51.2057495  63.0512762  41.0338640  51.9675589  62.9736233
  41.2956667  50.6674576  64.6085310  40.2244139  50.5263615  64.7521305
  41.8803358  49.7888565  64.8811483  41.8509674  51.7349911  65.5380440
  42.8217268  52.0487118  65.1542473  41.1325121  52.5537539  65.5774212
  42.2614098  51.2178373  66.8357563  41.9107676  50.3255844  67.1536112
  43.0527496  51.8072224  67.7381802  43.4369898  51.0481119  68.7670517
  43.2254505  50.0605297  68.7717819  44.0131617  51.5034246  69.4604731
  43.4361792  53.0370808  67.6727295  43.2117271  53.6335611  66.8891907
  43.9917469  53.4123135  68.4281445  39.6121526  50.0943708  62.1149874
  38.8838315  49.4107866  62.8950691  39.0571356  50.9413767  61.2695312
  39.6157956  51.6837788  60.8735037  37.5521445  51.0964918  60.9755802
  36.9434810  51.4732075  61.7975998  37.3859429  52.1075773  59.9446821
  37.8490305  53.0369377  60.2762651  37.8976774  51.7645216  59.0454912
  35.9827828  52.4295139  59.5189619  35.4686713  51.5440512  59.1451311
  35.5141830  52.6910925  60.4676914  35.9893370  53.7032843  58.6147928
  35.8763385  53.4818220  57.3355293  36.0838413  54.8930788  59.0934134
  36.9332719  49.6563959  60.5654621  35.8682990  49.2640543  60.9915257
  37.7044582  48.8688231  59.8036861  38.6195850  49.1745186  59.5050287
  37.2097659  47.6219988  59.2473841  36.1205339  47.5810814  59.2470169
  37.7603197  47.6845026  57.8308582  38.8427734  47.6055717  57.9316473
  37.5623584  46.7163944  57.3707724  37.2580433  48.7908554  56.9360685
  36.1505651  49.5266533  57.2039461  35.6022000  49.5079136  58.1341839
  35.9874988  50.5143881  56.2344074  35.3789806  51.3170481  56.3088512
  36.8880606  50.4401541  55.2111769  37.0916319  51.1225224  53.9950705
  36.6350245  52.0727205  53.7604570  38.0932045  50.6403828  53.1194639
  38.4064484  51.3117504  52.3336220  38.9821553  49.5540428  53.4559965
  39.7157001  49.1680574  52.7636576  38.7718105  48.9059353  54.6986151
  39.3875647  48.0451870  54.9139214  37.7584147  49.3127489  55.5679417
  37.6515508  46.3566494  60.0596142  37.0422411  45.2790117  59.9039698
  38.7007570  46.4427519  60.9337950  39.2400479  47.2959614  60.8977365
  38.8573503  45.5261850  62.1019793  37.8831100  45.3205299  62.5454426
  39.3395209  44.1208124  61.6347313  38.5650373  43.6489773  61.0300446
  40.2944136  44.1554165  61.1102486  39.5833588  43.1959152  62.8155327
  40.6242704  42.5210619  62.8787804  38.6701679  43.1263590  63.6405277
  39.9204731  46.0578251  63.0300665  40.9176397  46.6151142  62.5372076
  39.8700690  45.7140446  64.3476248  39.1525865  45.0787163  64.6664953
  40.9242392  46.0760546  65.3226662  41.1669540  47.1343040  65.2262354
  40.3612089  45.8168459  66.7228460  39.2868590  45.9854650  66.7966270
  40.5136395  44.7490788  66.8801498  41.2071085  46.4801025  67.8405333
  40.7164383  46.5216541  68.8129616  42.1636963  45.9991121  68.0447149
  41.5217686  47.9511833  67.5576496  40.5794525  48.7218285  67.1291256
  42.6163054  48.4324503  67.9903507  42.2797394  45.3254223  65.1344347
  43.3084822  45.9625292  65.3254032  42.3511076  44.0597582  64.6970749
  41.5078211  43.7057829  64.2685032  43.5083437  43.2604647  64.4633913
  44.2370987  43.5178614  65.2320051  43.2718420  41.7390490  64.4432211
  42.7540731  41.5402079  63.5048866  44.2173433  41.2112236  64.3186140
  42.4834156  41.1717510  65.6323051  43.0449820  40.8757973  66.7273760
  41.1712646  41.1257696  65.5679131  40.6715822  40.6367445  66.2967968
  40.8194637  41.6151476  64.7574520  44.2247391  43.7038422  63.1110430
  45.3879309  43.2798052  62.9079199  43.5769987  44.3091917  62.1550035
  42.6331520  44.6140385  62.3455667  43.9883995  44.5076036  60.7906532
  44.3873882  43.5570574  60.4365778  42.8603935  44.9056864  59.8260117
  42.0843410  44.1403580  59.8155546  42.3767757  45.8047056  60.2080870
  43.3124781  45.2448368  58.3741903  44.0422249  46.0539055  58.3430195
  43.8874006  44.0551090  57.6921415  44.8823738  43.9361048  58.1210518
  43.2940054  43.1495285  57.8182411  43.9515162  44.3827248  56.6545153
  42.0808268  45.6986380  57.4795675  41.5046263  46.3786077  58.1070518
  42.4626160  46.1127663  56.5463829  41.3713551  44.9130917  57.2194529
  45.3008795  45.3734207  60.6428003  46.1410952  45.1944876  59.7799397
  45.5210352  46.3029766  61.5931225  44.8656988  46.3533115  62.3600006
  46.4245892  47.5242853  61.4031792  46.4051914  47.6947021  60.3267574
  45.9045887  48.7680578  62.1691132  46.5567064  49.5651293  61.8120241
  44.8510361  49.0064621  62.0231962  46.0532999  48.5157061  63.6808920
  45.7061529  47.5061750  63.9009619  47.0773411  48.6165094  64.0404463
  45.1054907  49.4303894  64.5017862  45.0994873  50.4563522  64.1337347
  44.1192675  48.9919758  64.3492794  45.4413176  49.3099546  65.9613705
  46.4772320  49.5620728  66.1881161  44.8903131  50.1306963  66.4205885
  45.1154566  48.0593061  66.5614891  44.1796923  47.6849365  66.4960146
  45.6341267  47.2730446  66.1969614  45.3185511  48.2113075  67.5391150
  47.8663921  47.2076035  61.6875410  48.7728977  47.9971313  61.3951826
  48.1170559  46.1478853  62.3869610  47.3388147  45.5234575  62.5435972
  49.4531488  45.7109022  62.7625465  49.6361446  46.2783909  63.6750031
  49.4267559  44.2740536  63.2814074  48.8177013  44.2900562  64.1852331
  49.0524101  43.6613894  62.4612808  50.7956839  43.7590694  63.6869478
  51.0052156  42.5757122  63.5354185  51.5942335  44.5278788  64.2863131
  50.5754709  45.8242559  61.6260624  50.3108978  45.4845810  60.4332209
  51.7038393  46.4241552  61.9363689  51.8512106  46.5333462  62.9295731
  52.7412987  46.8426323  61.0342360  52.4733305  46.5759182  60.0119066
  52.8855133  48.3989429  61.2371635  53.4125948  48.9436769  60.4538679
  51.8762970  48.8008547  61.1474133  53.4691334  48.7270069  62.5825691
  53.4645844  49.9421358  62.8740311  53.6760187  47.8821182  63.4554052
  54.0410519  46.0962296  61.1792755  55.0999117  46.5931320  60.8140087
  53.9355278  44.8396587  61.6680574  53.0272341  44.6517229  62.0677853
  54.9501657  43.8606405  61.9502401  55.8453417  44.3821239  62.2890949
  54.4991636  42.7775908  63.0102253  53.5540485  42.3230410  62.7131701
  55.3776360  42.1574593  63.1886292  54.1602421  43.3385515  64.2732143
  53.2450581  43.6259842  64.3108606  55.2959156  43.1073475  60.6729174
  55.2795744  41.8498898  60.5891132  55.6232166  43.8134813  59.6038532
  55.7475090  44.8128271  59.6810341  55.8798027  43.4309673  58.2699966
  55.7530308  42.3534727  58.1649399  54.8596716  44.1046047  57.3333454
  55.0693226  45.1716280  57.4082232  55.0875807  43.8532877  56.2974882
  53.4015512  43.8971138  57.7057362  53.2724857  44.1732931  58.7522364
  52.4327040  44.8221445  56.9652605  52.5987530  45.8633518  57.2416925
  52.5817537  44.7459078  55.8881950  51.4227247  44.5778465  57.2944498
  52.9898119  42.4361610  57.4272633  53.1141043  42.1603060  56.3800955
  53.5960913  41.8026829  58.0747461  51.9901705  42.1839905  57.7811384
  57.3037195  43.8231945  57.8172588  57.5160551  45.0509596  57.6825476
  58.2197142  42.8941488  57.5206757  58.1410885  41.6235018  58.2052612
  57.5994635  40.8977413  57.5986242  57.6638031  41.7645645  59.1750050
  59.5522594  41.1706543  58.3792639  59.6569443  40.0955677  58.5253334
  59.9231100  41.6798019  59.2688370  60.2137089  41.6846323  57.0648623
  60.0704336  41.0067987  56.2233686  61.2784719  41.8621016  57.2161341
  59.5214605  43.0714178  56.8226671  60.1665592  43.7497807  57.3810339
  59.5126343  43.6038399  55.3515482  60.5598927  43.6152935  54.6835423
  58.3515549  44.0599728  54.8471880  57.6585007  44.2647696  55.5527687
  58.2717085  44.7602558  53.5910797  58.7458324  44.1239357  52.8438091
  56.7932272  44.8539019  53.1065655  56.7448425  45.4784203  52.2145271
  56.4787054  43.8499594  52.8214788  56.0475111  45.5307150  54.0537596
  55.2903414  44.9416399  54.0896320  58.9782047  46.1564350  53.5470772
  59.0905905  46.7980623  54.6072006  59.3975258  46.5506887  52.3233318
  59.1406822  45.8981848  51.5964413  59.7185326  47.9187870  51.9046831
  60.5313730  48.2210016  52.5650311  60.1563311  47.8376436  50.4029322
  60.8899498  47.0340633  50.3383303  59.3483448  47.5250626  49.7414541
  60.6612730  49.0616179  49.8439169  60.4051399  50.1978827  50.2589226
  61.2733221  48.9596748  48.6972618  61.5874577  49.8557806  48.3531523
  61.4335680  48.0712795  48.2443047  58.4787178  48.8130569  52.2191715
  57.3557186  48.4206152  51.7850256  58.6453915  50.0824261  52.6757240
  59.7805262  50.5201387  53.4996510  60.6573105  50.5975723  52.8567219
  60.0082254  49.8759747  54.3489456  59.3409109  51.8128490  54.1081047
  60.1478720  52.5443935  54.1500473  58.8755608  51.6843176  55.0853634
  58.2802677  52.3971748  53.1106377  58.7511301  52.8816032  52.2552299
  57.5713301  53.0864811  53.5693026  57.5720310  51.1641979  52.5898075
  56.7272329  50.8671999  53.2112694  57.0292902  51.3437700  51.1347294
  55.7956123  51.4228487  51.0801697  57.7362490  51.2119389  49.9721670
  58.7362766  51.0853958  50.0356436  57.0363188  51.2620258  48.6633348
  56.4342070  52.1704340  48.6445904  58.0655670  51.3331699  47.4874258
  58.8251781  50.5958462  47.7471399  57.4009562  51.0885429  46.0882282
  56.8758583  52.0139503  45.8515930  58.2274771  50.9685278  45.3878260
  56.9140863  50.1142263  46.0462904  58.7467098  52.7482080  47.6384687
  58.0207300  53.5005379  47.3301554  58.9393950  53.0170012  48.6770821
  60.0577641  52.9148293  46.8943024  60.6221151  51.9822979  46.8932009
  59.9090481  53.1573439  45.8420801  60.5199003  53.7561846  47.4106836
  56.1029816  50.1094437  48.4231186  54.9766111  50.3703594  48.0496597
  56.5184402  48.8866138  48.6090231  57.5175905  48.7393141  48.5992575
  55.7081795  47.6857042  48.3627558  55.3669071  47.6791954  47.3275805
  56.5836954  46.4000463  48.3835459  57.1651840  46.3377905  49.3033791
  55.9076214  45.5450869  48.3752012  57.5719738  46.2798786  47.2412729
  58.5308886  47.0719099  47.3087740  57.4100733  45.4239988  46.3134623
  54.4907475  47.5927973  49.3324566  53.4567118  47.1722746  48.9205313
  54.6733761  47.9273701  50.5855322  55.6279612  48.1865978  50.7896805
  53.6297750  48.1744719  51.6040850  53.1976080  47.2046757  51.8507290
  54.3782663  48.6394167  52.8444672  55.0061035  47.8600121  53.2762575
  55.0312328  49.4751692  52.5929689  53.3344746  49.0556192  53.9491653
  53.2574224  50.4509211  54.1531754  53.7354565  51.2086868  53.5501242
  52.3498344  50.9410191  55.1542902  52.2587538  52.0096254  55.2815199
  51.5521479  50.0664234  55.9176016  50.9778976  50.5220509  56.7107248
  51.5503216  48.6883307  55.6232977  50.9236717  48.0033398  56.1751127
  52.4774504  48.1660604  54.6654320  52.5009012  47.1162176  54.4130850
  52.6819897  49.2390537  51.1161089  51.4376259  49.0377569  51.1988640
  53.0921698  50.3211927  50.4433107  54.0678167  50.4871559  50.2416515
  52.0684624  51.2867832  49.9239588  51.3692093  51.3708830  50.7558632
  52.8021145  52.6075554  49.8869658  52.0511818  53.3976173  49.8876810
  53.5203695  52.7585936  50.6928158  53.5403681  52.7082348  48.6744070
  54.2072725  52.0241880  48.5799694  51.2512779  51.0003376  48.6967468
  50.1551199  51.5058279  48.6064529  51.8701839  50.2498055  47.8052616
  52.7700329  49.9183464  48.1223011  51.1546516  49.5313883  46.7478800
  50.6050587  50.3351927  46.2580347  52.1429396  48.9306879  45.6958389
  52.7256775  48.2148123  46.2755346  51.5864086  48.3984566  44.9244070
  53.0295658  49.8671436  44.8417425  54.2975283  49.4283772  44.4277716
  54.7347069  48.5721588  44.9198723  55.0564575  50.2052689  43.5498619
  56.0554790  49.8939848  43.2825375  54.5045567  51.3631916  42.9435158
  55.1980257  52.1648359  42.1344805  56.1192989  51.9097376  42.2226954
  53.1649590  51.7587042  43.2310390  52.7848482  52.6844501  42.8249407
  52.4604177  50.9793997  44.1699409  51.4479542  51.2571192  44.4233131
  50.1348019  48.5067034  47.3440218  48.9639425  48.5979223  47.0878172
  50.5630827  47.7707052  48.3957291  51.5601587  47.7512407  48.5556269
  49.8183775  46.7214584  48.9894199  49.5140886  46.1879969  48.0889034
  50.6300735  45.7685709  49.8653936  51.1703491  45.1900959  49.1160154
  51.2953711  46.2936926  50.5507612  49.8306847  44.8295879  50.6997013
  49.1691065  43.7380075  50.2636719  49.0515423  43.2898092  49.2881203
  48.5786247  43.1410456  51.3387108  48.0332088  42.3048449  51.1857605
  48.7409401  43.8178968  52.5274515  48.1342649  43.6284161  53.8091183
  47.5009584  42.7619791  53.9299965  48.3893633  44.6208382  54.8267174
  48.2179737  44.5326376  55.8893824  49.2390871  45.6623650  54.5032978
  49.4137239  46.4139414  55.2589655  49.7466135  45.8181572  53.1623125
  50.3849602  46.6833973  53.0609560  49.4679165  44.9336624  52.1159220
  48.4990644  47.1740007  49.6580219  47.4614286  46.6769552  49.2720366
  48.5852528  48.1387615  50.5517435  49.5518970  48.3524561  50.7518291
  47.4848938  48.7802410  51.2394762  47.1992159  48.0461645  51.9928789
  47.8948593  50.1390123  51.9955969  48.5940933  50.7214165  51.3956118
  46.7574883  51.0342932  52.3937464  46.2212849  50.6184292  53.2467651
  47.0811558  52.0373297  52.6716948  46.2184238  51.2052488  51.4619303
  48.5628366  49.6989298  53.2570601  49.5064116  49.2184687  52.9983711
  48.8923693  50.5501127  53.8528776  48.0864859  48.9369678  53.8739872
  46.2910461  48.9677095  50.2192783  45.1534939  48.7004614  50.5916166
  46.5427923  49.4142294  48.9593983  47.5468636  49.4144344  48.8500929
  45.6835032  49.7510242  47.7705050  44.7033167  49.9776268  48.1900167
  46.2025070  51.0241318  47.0021009  46.3543415  51.8775988  47.6628923
  47.0938730  50.8353233  46.4038420  45.4218149  51.2779379  46.2850142
  45.3939629  48.5422993  46.8616009  44.5966816  48.7079239  45.9593153
  45.8389044  47.3143339  47.1640825  46.5623522  47.1514177  47.8497791
  45.1807928  46.0688925  46.7520380  44.4938612  46.2711239  45.9302521
  46.1940908  45.1904488  46.1239338  45.6516075  44.3579054  45.6759596
  46.7089462  45.7073069  45.3140688  46.8599653  44.7470999  46.8643141
  44.4132710  45.4638100  47.8890991  43.9093781  44.4008112  47.7484083
  44.3242455  46.1463213  49.0851068  44.8562527  46.9959688  49.2082500
  43.5856295  45.6469393  50.1836109  43.2241106  44.6238947  50.0797844
  44.5813417  45.5153179  51.3549614  45.5092001  45.0380182  51.0397387
  44.8007965  46.5456009  51.6350889  44.1508579  44.8063993  52.6274681
  43.4674406  45.4489279  53.4458637  44.4644976  43.5680151  52.7366924
  44.2784500  42.9895210  53.5434294  45.1000357  43.1446075  52.0756912
  42.2964859  46.4776897  50.4590940  41.1995792  45.9147692  50.5091619
  42.4497747  47.8241873  50.5574751  43.4159040  48.1140709  50.5058336
  41.4732790  48.8511753  50.3040695  40.6484413  48.7763977  51.0126972
  42.0130205  50.2543020  50.4811096  42.9669285  50.2556181  49.9537086
  41.2956619  50.9506941  50.0469017  42.3126984  50.7882929  51.9590616
  41.3377380  51.1018229  52.3322296  42.9402494  49.7437525  52.8979445
  43.9329624  49.4150305  52.5904274  43.0570173  50.2405930  53.8610697
  42.2078085  48.9389372  52.9604053  43.1087875  52.0619059  51.7590380
  44.1450167  51.8300056  51.5129423  42.5396872  52.6269150  51.0208082
  43.1620121  52.5222492  52.7456284  40.8361673  48.7421513  48.8690042
  41.5744495  48.6809540  47.8705883  39.4922900  49.0142393  48.7118530
  38.4951639  49.1550875  49.7997904  38.6424661  49.9856472  50.4901361
  38.3977056  48.1583738  50.2301073  37.1261764  49.3490887  49.1763449
  36.9052076  50.4146385  49.2385674  36.3545394  48.6939812  49.5807171
  37.3182034  48.8698244  47.7860117  36.5212846  49.3841076  47.2488546
  37.1525311  47.7945566  47.7192831  38.7839603  49.1467810  47.4807310
  39.1205812  48.3869314  46.7754555  39.0488720  50.4733372  46.7886829
  38.1233311  51.2312603  46.5208292  40.2870226  50.8276272  46.4835978
  40.9939718  50.1477098  46.7245150  40.6380653  51.8827200  45.5685711
  40.1243639  52.7564716  45.9695387  42.1059418  52.0398808  45.7209063
  42.5381756  51.0625744  45.5060816  42.6893902  53.0621338  44.7077990
  43.7098455  53.3371592  44.9745035  42.5542641  52.7290869  43.6787605
  42.1856546  54.0275240  44.7564888  42.5530910  52.4355173  47.1566916
  42.2448015  51.6654778  47.8638697  43.6321306  52.5567055  47.0613956
  41.8994331  53.7811136  47.6631975  40.8380699  53.8203335  47.4181128
  41.9149208  53.8540745  48.7506437  42.2573566  54.6993589  47.1975565
  40.0704765  51.6966534  44.1949415  39.9573803  50.5238771  43.6871815
  39.5670724  52.7777290  43.6286402  39.6979451  53.6936522  44.0336847
  38.9723325  52.7803469  42.2809362  38.2339764  51.9790936  42.3114252
  38.3325696  54.1551924  42.1364832  37.6154113  54.3291092  42.9386902
  39.2223740  54.7847080  42.1440697  37.5988960  54.2957067  40.7915783
  37.7763891  55.2680206  40.0391436  36.7402744  53.3950758  40.5122757
  39.9243665  52.3731995  41.1689377  41.1743212  52.3493767  41.3294029
  39.3466091  51.8530846  40.0670242  38.3500433  52.0064163  40.0083351
  39.9701309  51.4503670  38.8132930  40.6832552  50.6696558  39.0779400
  38.9785910  50.8254337  37.8253222  38.2145143  51.5799904  37.6384187
  39.5090079  50.6152821  36.8965626  38.3583355  49.6325827  38.4382582
  37.4381804  49.7832203  39.2994547  38.7194538  48.4801722  38.0200648
  40.7609367  52.5214815  38.1681395  41.8816519  52.2526979  37.7899647
  40.2727175  53.8076830  38.0795956  39.4230318  54.0358400  38.5756636
  41.0258913  54.9819994  37.5743198  41.4219856  54.7297096  36.5906739
  40.0247860  56.2158918  37.3940110  40.4746866  57.0479298  36.8523455
  39.1320157  55.9767199  36.8162036  39.4734287  56.6510105  38.5939121
  38.6682868  56.1563253  38.7631154  42.2052526  55.3569603  38.4108186
  43.2326412  55.8161640  37.8752327  42.1404696  55.0845957  39.7075272
  41.2396812  54.8752260  40.1135397  43.2424736  55.1774025  40.6470966
  43.9219809  56.0109043  40.4692364  42.7703333  55.3729105  42.0602083
  42.0513105  54.6071243  42.3512030  43.5758495  55.3326464  42.7934408
  42.1222878  56.7648792  42.3078823  41.4678192  56.9691467  41.4605093
  41.3744974  56.8428135  43.6568213  40.9406805  57.8422880  43.6877823
  40.5514240  56.1282253  43.6574793  42.0869446  56.7402029  44.4753551
  43.2663584  57.7337027  42.3206091  43.9301300  57.5306845  43.1610250
  43.8385296  57.7224064  41.3929319  42.9440212  58.7598610  42.4972200
  44.2315531  54.0247679  40.4979038  45.3968000  54.3439388  40.5796337
  43.7787724  52.7785015  40.2556181  42.7948952  52.5837803  40.3746748
  44.6097612  51.6623354  39.9369359  45.3444386  51.8203497  40.7264805
  43.8008881  50.3151131  40.2080679  42.9684734  50.2859163  39.5049787
  44.4333553  49.4855309  39.8920131  43.4260130  50.1039839  41.6673326
  43.5553217  51.0898685  42.1138954  42.3855448  49.7890043  41.7467403
  44.2605162  49.1960669  42.5016308  45.3015900  49.4844770  42.3564339
  43.9008236  49.2406464  43.5296059  44.1879034  47.8342676  42.0198393
  44.4105053  47.6453590  41.0529566  43.6603069  46.8279743  42.6608706
  43.2198954  46.8246841  43.8557768  43.5983944  47.5306559  44.4709587
  42.6568460  46.0316086  44.1280079  43.6867571  45.6568670  42.0992661
  44.2057228  45.5761003  41.2365675  43.0269766  44.9460840  42.3813725
  45.2742338  51.9150543  38.5944700  46.4143801  51.5474749  38.4734607
  44.6299171  52.5173330  37.6225877  43.6703920  52.7146673  37.8684807
  45.2420235  53.0118132  36.3964486  45.8162451  52.1822309  35.9839439
  44.2103529  53.3708191  35.3095937  43.5240030  54.1073799  35.7273245
  44.8472309  54.0241623  34.0398335  45.5224800  53.3105898  33.5676575
  44.1173124  54.4773149  33.3690310  45.5696726  54.7723198  34.3660879
  43.4111786  52.2230387  34.8152351  42.7246141  51.8715477  35.5854177
  42.7033806  52.5964212  34.0751624  44.0910721  50.9553480  34.2704678
  44.4882202  50.3612089  35.0934911  43.3780146  50.3543997  33.7061024
  44.9922705  51.1501741  33.6891103  46.3014555  54.1113377  36.6014123
  47.4439764  53.8201284  36.2857199  46.0199594  55.1928139  37.3273969
  45.0539112  55.3756094  37.5585556  47.0175648  56.1487722  37.8615141
  47.5005817  56.6087008  36.9993877  46.2663412  57.2108078  38.7073565
  45.5035114  57.5677204  38.0153966  45.7742023  56.7746782  39.5766640
  47.1571541  58.3509541  39.1231918  46.5444946  58.9721966  39.7764897
  48.0056190  58.0418825  39.7336769  47.6946783  59.1770649  37.9804850
  47.5850773  58.8592291  36.7490911  48.1658077  60.3409290  38.3847642
  48.5762453  61.0003948  37.7392006  48.2161665  60.5672407  39.3677926
  48.1823540  55.5405712  38.6251879  49.2953968  56.0000944  38.5414696
  48.0055523  54.4153261  39.3565679  47.0394373  54.1770363  39.5296192
  49.1792870  53.6266327  39.9649882  49.8279858  54.2669106  40.5627632
  48.5011387  52.4699879  40.7927752  47.6230383  52.9217005  41.2542963
  48.0754423  51.6921997  40.1587963  49.3213177  51.7899179  41.9253492
  50.0425959  52.4286652  42.4351215  48.4448957  51.3812304  43.1072807
  47.9370785  50.4420662  42.8877497  49.1235018  51.3395739  43.9592505
  47.7223778  52.1405268  43.4065056  50.0858736  50.6353807  41.3503790
  49.5172262  49.9909401  40.6799793  51.0314846  50.9548283  40.9123421
  50.4035473  50.0733185  42.2285986  50.2118683  53.0880928  38.8942909
  51.2849712  52.7544832  39.3002844  49.7098637  52.9239082  37.6583934
  48.6998940  52.9307365  37.6623154  50.5423689  52.5688076  36.4910889
  51.3941288  52.0394564  36.9181657  49.8221111  51.6481400  35.5625606
  49.0291977  52.2605515  35.1332116  50.4943848  51.4194155  34.7356176
  49.2878389  50.3431749  36.2699127  48.9310932  50.6177282  37.2626138
  48.1231260  49.6361160  35.5780959  47.3296261  50.3493357  35.3549957
  48.4024525  49.4104719  34.5489407  47.6200867  48.8437462  36.1323547
  50.4808712  49.4073629  36.5479732  50.2023506  48.4672022  37.0240235
  51.1071730  49.2159462  35.6766510  51.0151863  49.9790955  37.3067403
  51.2341022  53.7394810  35.7362795  52.1645546  53.5354042  34.9432516
  50.7528877  55.0033617  36.0219336  50.0679636  54.9555969  36.7626786
  51.3905621  56.3531256  35.7842803  51.9406891  56.0957336  34.8791766
  50.3244352  57.4223042  35.4084516  49.8892498  57.0260859  34.4909930
  49.4292593  57.4569845  36.0293937  50.9186649  58.8630629  35.1938748
  51.2822533  59.3361139  36.1060858  51.8756390  58.7204647  34.6919036
  50.0948191  59.8319244  34.3645453  50.0450087  59.5818472  33.3047915
  49.0556431  59.8588228  34.6924186  50.6505823  61.2416172  34.5488143
  50.7249546  61.6061687  35.5733490  51.6077328  61.0774088  34.0538359
  49.7878599  62.1084833  33.7490320  50.1266289  63.0597305  33.7274528
  49.6339893  61.7171812  32.8307199  48.8443995  62.0911312  34.1091442
  52.3919296  56.6282845  36.8706059  53.5867310  56.7787027  36.5385270
  52.0354080  56.6784334  38.1749296  51.0920811  56.5035200  38.4905887
  52.7487946  57.3744535  39.2642617  53.3273220  58.0815697  38.6697912
  51.8006897  58.1589985  40.2664518  51.2178040  57.3869181  40.7686853
  52.5197935  58.8999367  41.4361954  53.2317066  59.6698189  41.1386204
  51.8942642  59.2035437  42.2756290  53.2217026  58.1618643  41.8243599
  50.9720993  59.1433573  39.4820929  50.4587603  58.6003065  38.6885691
  50.2278376  59.5034218  40.1923990  51.5650511  60.4154491  38.8369775
  50.8226538  60.9010553  38.2036281  51.8813276  61.1609745  39.5665359
  52.3761892  60.1490307  38.1593490  53.5813618  56.3310337  40.0229454
  53.1602716  55.6329441  40.9641552  54.8424959  56.3414907  39.7346187
  55.1805162  56.9233704  38.9814520  55.8909082  55.6159735  40.4438782
  55.7548189  54.5367098  40.5129099  57.2957039  55.6537151  39.7667265
  57.6395988  56.6785431  39.9066114  57.9462433  54.9224234  40.2464247
  57.2581959  55.3049994  38.3132577  58.1803513  55.7139015  37.6524806
  56.3759613  54.5571566  37.8176117  56.0576057  56.0929728  41.9216108
  56.5761280  55.2710962  42.6891375  55.5758095  57.2744751  42.2665119
  55.1991940  57.7672148  41.4693451  55.7625246  58.0265188  43.5078239
  56.8279552  57.9107666  43.7067270  55.4603481  59.4920731  43.2925987
  54.4089699  59.5342636  43.0081320  55.6174135  60.1087999  44.1775179
  56.0838461  60.1133585  42.2226810  56.1854601  61.0305929  42.4871826
  54.9326181  57.4417114  44.6267557  53.9895821  58.0717993  45.1212740
  55.1207209  56.1818838  45.0832319  55.9298944  55.7814312  44.6304941
  54.1236973  55.2604055  45.7599163  53.3093786  55.3666496  45.0431824
  54.7316790  53.8468266  45.7237720  55.1657629  53.5503912  44.7688913
  55.4671240  53.7560511  46.5231371  53.9178228  53.1648445  45.9700251
  53.5233212  55.7343769  47.1062088  52.3516512  55.4370785  47.3450851
  54.3195009  56.2895823  47.9964304  55.2454710  56.5455437  47.6847076
  53.8053036  56.8693209  49.2602730  53.1312370  56.1816931  49.7710609
  54.9860573  56.9200754  50.2603912  55.7639647  57.5052691  49.7699738
  54.5955658  57.5921345  51.5098047  53.8620186  56.9694996  52.0219898
  55.3950310  57.6119900  52.2504520  54.2647028  58.6214352  51.3713264
  55.4973221  55.4704809  50.5817747  54.9243116  55.0736332  51.4197922
  55.3237963  54.7915792  49.7468615  56.9948769  55.3649855  50.9810972
  57.2821808  56.1867857  51.6369963  57.1968985  54.3885136  51.4213133
  57.6576281  55.5370712  50.1330137  53.1938982  58.1967688  48.9799166
  52.0855618  58.3897924  49.4338608  53.7742615  59.0965176  48.1834650
  54.6917105  58.8090229  47.8740501  52.9698992  60.2474785  47.7015686
  52.7610207  60.8441067  48.5895491  53.8645840  61.1902237  46.7724562
  54.7100258  61.5270138  47.3723698  54.2083740  60.5386734  45.9690905
  53.0788946  62.3316145  46.0801697  53.7357187  62.8039169  45.3496790
  52.1453762  62.0819521  45.5758762  52.6944637  63.3892775  47.1445942
  52.9783154  63.3310413  48.3170366  52.0294380  64.4185305  46.7110157
  51.6968107  65.0294447  47.4433041  51.6480017  64.4013071  45.7759666
  51.6283083  59.8767567  47.0938635  50.6192732  60.4173660  47.4783945
  51.6169262  58.9287615  46.2201738  52.5380230  58.6307669  45.9322739
  50.4247713  58.3220100  45.6072760  50.0054121  58.9918804  44.8566055
  50.9016371  57.0882463  44.8362732  51.8374872  57.1352530  44.2794275
  51.0914612  56.2844086  45.5475521  49.8489332  56.5694332  43.7556362
  48.8822556  57.0332623  43.9518404  50.1457262  56.9335842  42.7720690
  49.7338629  55.0452518  43.7427282  49.1499901  54.7637033  42.8664112
  50.7240772  54.5912504  43.7045908  49.0266848  54.4056034  44.8702288
  48.0345058  54.2530775  44.7588110  49.4258547  53.6667538  45.8953285
  50.7024670  53.5240555  46.2088013  51.4006662  54.0243053  45.6774235
  50.9434748  53.0150652  47.0472193  48.5883808  52.9921246  46.6288376
  47.6070642  53.2311058  46.6255522  48.9496708  52.5166893  47.4434137
  49.4079399  57.8986597  46.6761065  48.2702923  58.2760572  46.5811443
  49.8139954  57.1660852  47.6846361  50.7758093  56.8926334  47.8268766
  48.9366722  56.7896843  48.7124205  48.1015110  56.2464285  48.2702875
  49.7300482  55.7529116  49.5869160  50.1309013  54.9642897  48.9501286
  50.5662203  56.2391615  50.0893974  48.7658072  55.1305246  50.6486368
  48.6329269  55.7873487  51.5083027  47.4526596  54.5209169  50.0888824
  46.8144703  55.3610516  49.8150492  47.7496481  54.0119028  49.1719294
  46.8710375  53.9408541  50.8053684  49.5230246  53.9676237  51.2728262
  48.9753103  53.9198303  52.2140074  49.4788504  53.0228901  50.7309532
  50.5847836  54.1056252  51.4770985  48.3622551  57.9334688  49.5006037
  47.2197104  57.8594637  49.9932337  49.1794920  58.9688635  49.7654057
  50.0492811  59.0907574  49.2667007  48.6248446  60.1348686  50.4571486
  48.1751204  59.8545933  51.4096642  49.7024345  61.1685181  50.6205988
  50.6727886  60.7577276  50.8994722  49.7247410  61.7460966  49.6964741
  49.3217707  62.2515488  51.7289495  48.3808327  62.7443838  51.4843130
  49.2943859  61.7029953  52.6704597  50.3169584  63.3660173  51.8003893
  51.2129068  62.8298473  52.1132708  50.4331732  63.8345003  50.8230829
  49.9094248  64.3796492  52.7671528  49.3018866  65.0996542  52.4030209
  50.1367474  64.5030165  54.0659237  50.8633566  63.5776091  54.6442795
  51.4209843  62.9025173  54.1408873  51.1309814  63.7071753  55.6095219
  49.5876265  65.4407024  54.7788954  49.0548801  66.2102175  54.3992567
  49.7757244  65.3733444  55.7689333  47.4338102  60.7104826  49.7292471
  46.4442635  60.9130621  50.3758430  47.4375439  60.7683802  48.4569311
  48.2164526  60.3117847  48.0042458  46.3912201  61.3216400  47.6247215
  45.9650278  62.2159433  48.0793428  47.0379734  61.7166996  46.2598515
  47.2695160  60.7765532  45.7592440  46.3203144  62.2330809  45.6223392
  48.5567856  62.6333523  46.5133333  49.2591286  61.5180302  46.7316628
  45.2491713  60.3661680  47.3846579  44.1466188  60.7753420  47.1981001
  45.4397583  59.0410566  47.3878574  46.4041853  58.7411165  47.3833990
  44.4340563  57.9848289  47.3886204  43.7401581  58.1958961  46.5749502
  45.0494671  56.6280603  47.1858263  45.8968592  56.6147518  47.8712845
  44.3529463  55.8850622  47.5742912  45.3490782  56.3477802  45.7765818
  44.4913149  56.3542461  45.1040459  45.9817696  57.1274662  45.3524494
  45.9488249  54.9169636  45.5990791  46.0735512  54.2717314  46.6291332
  46.1684656  54.4315815  44.4451141  43.6156368  57.9707003  48.7173176
  42.3815870  57.9720259  48.7081718  44.3976784  57.9344702  49.7962809
  45.3928804  57.9688549  49.6274805  43.7779617  57.8524923  51.1505127
  43.1962299  56.9325733  51.2091064  44.8922920  57.5620747  52.1293449
  45.4989481  56.7557859  51.7170620  45.5683279  58.4140968  52.2009754
  44.5505142  56.9810486  53.5466146  43.7831593  57.4873304  54.1322279
  43.9665318  55.6004953  53.3624029  44.3370724  55.0557041  52.4940681
  43.9924717  55.0456047  54.3002319  42.8835535  55.7239962  53.3655071
  45.8427572  56.9394016  54.2907667  45.7091236  56.4798927  55.2700949
  46.5161180  56.3688850  53.6510801  46.2581968  57.9197502  54.5240641
  42.9603958  59.0701771  51.4430189  41.9147062  58.9754391  52.1468019
  43.2684231  60.1876593  50.8624172  44.1808939  60.2426338  50.4329109
  42.4875116  61.3697290  50.9323883  42.2917461  61.6277885  51.9731474
  43.2387114  62.5719929  50.3261805  43.6878586  62.2667360  49.3810940
  42.5065088  63.3154821  50.0112057  44.3309307  63.2288551  51.1925459
  44.6156502  62.8232098  52.3175097  45.0443125  64.0487528  50.5991364
  41.0549307  61.1306000  50.3780031  40.0419903  61.5751028  50.9163237
  41.0036755  60.4065847  49.2839622  41.8929482  59.9948931  49.0393972
  39.8013592  60.1189089  48.4621429  39.2279625  61.0458088  48.4489536
  40.1378584  59.7928619  46.9529486  40.8045006  58.9309025  46.9263124
  38.8643646  59.5359850  46.1555147  38.2799387  58.6909962  46.5195751
  38.2530594  60.4375410  46.1955595  39.1077709  59.2562437  45.1305246
  40.9891415  60.9812498  46.4039707  40.3053331  61.8299103  46.3867283
  41.7872381  61.2058926  47.1115541  41.4752960  60.7078266  44.9886513
  42.1462870  61.5285206  44.7350168  41.9941378  59.7557545  44.8770285
  40.6542301  60.7887793  44.2763376  38.9848828  59.0028572  49.1553688
  37.7969742  59.0022421  49.2824078  39.6445632  57.9712248  49.7139835
  40.6212330  57.9249430  49.4608355  38.9827991  56.9128895  50.4327869
  38.1120110  56.5958405  49.8589277  39.9628329  55.7318592  50.6295252
  40.3166485  55.3931856  49.6557617  40.8663130  56.0817528  51.1289215
  39.3799067  54.5222807  51.3503790  39.9159575  54.2639065  52.2636127
  38.4022903  54.7504377  51.7750120  39.2692685  53.0682945  50.3411865
  38.0835128  53.4999895  49.0893888  37.2283530  53.9740944  49.5710850
  38.5902905  54.1766691  48.4013605  37.7562070  52.5931072  48.5809326
  38.3900928  57.5215006  51.7825031  37.3964190  57.1348572  52.3226547
  38.9504051  58.6294317  52.2723341  39.9038076  58.8625574  52.0340538
  38.4580445  59.3702030  53.4832430  37.9588580  58.6434269  54.1241121
  39.6335721  60.0434113  54.3003654  40.2260303  60.6300116  53.5982323
  39.2161250  60.6310987  55.1179600  40.4923534  59.1005564  55.0801325
  41.4143848  59.5527077  55.7072449  40.2277422  57.8614569  55.0643682
  40.8858871  57.3995495  55.6755877  39.4503832  57.5709581  54.4886827
  37.3935294  60.3966999  53.0871725  36.4397717  60.6389380  53.7956429
  37.5247264  61.0454369  51.8928814  38.3779621  61.0024643  51.3541412
  36.4300156  61.8858099  51.3988924  36.0692573  62.6746845  52.0589161
  36.9185376  62.6027203  50.1473331  37.8556705  63.0730867  50.4450512
  37.1642065  61.8871260  49.3626833  35.9901476  63.7409115  49.5883560
  35.0000525  63.2983208  49.4791317  35.8387446  64.5320702  50.3226900
  36.3154411  64.3249035  48.2131720  35.5146623  64.9685383  47.8490543
  37.2751355  64.8333645  48.3056784  36.4782548  63.2749319  47.0785379
  37.1121407  63.5772324  46.2449312  36.9693255  62.3656940  47.4252939
  35.1732635  62.8753662  46.5394306  34.7056317  63.5836697  45.9919596
  35.3231239  62.0364046  45.9974146  34.5018530  62.7618265  47.2853661
  35.2205372  61.0048914  51.0631084  34.1033387  61.4780712  51.3378525
  35.4484177  59.8135900  50.4814577  36.3949561  59.5565844  50.2403784
  34.3184471  58.9050102  50.2612877  33.5459447  59.4604826  49.7295094
  34.7069550  57.6660204  49.4702721  35.4577541  57.0761681  49.9960852
  33.8914037  56.9630241  49.3006516  35.2578855  58.2205629  47.8725672
  36.3620424  58.8947678  48.2060099  33.5341740  58.4796286  51.5224218
  34.0992856  58.2489586  52.5901318  32.2316670  58.2143927  51.3329935
  31.9254136  58.2903099  50.3735399  31.1876941  57.8386641  52.3059845
  31.7585778  57.6112175  53.2062435  30.0541544  58.8981199  52.4564409
  29.4432592  58.5602236  53.2935381  30.6345129  60.2645493  52.8740692
  29.9237037  61.0874653  52.9493237  31.2325478  60.1082468  53.7718582
  31.3784456  60.6286287  52.1654701  29.1524148  59.0665007  51.3848925
  29.6273017  59.4777346  50.6589651  30.4213357  56.5457869  52.0568943
  29.8089051  55.9189081  52.9788351  30.4246593  56.0905313  50.7739115
  30.7037663  56.7506933  50.0623035  29.5724630  55.0256777  50.3377295
  29.3372774  54.3030071  51.1190987  28.2838082  55.5877209  49.7536135
  27.6574230  54.8372126  49.2714596  27.6254725  56.0605240  50.4824162
  28.6790586  56.4675808  48.7356091  29.4871402  56.9301653  48.9693260
  30.2795601  54.3078041  49.1920185  31.4065146  54.6551132  48.7332678
  29.6309853  53.3108425  48.6687517  28.8253546  52.9637003  49.1693020
  29.8581910  52.5183582  47.4436426  30.7838798  52.9454613  47.0579147
  30.1597762  51.0821009  47.8874063  29.3567753  50.8405590  48.5837889
  30.1175547  50.4456091  47.0035458  31.5124846  50.8575439  48.6592531
  31.6419291  51.7087507  49.3276787  31.4272618  49.5266485  49.4726419
  31.3653636  48.6162281  48.8764811  32.2166419  49.4177437  50.2163601
  30.5773258  49.6742105  50.1389265  32.8829455  50.6987667  47.8514433
  33.0471444  51.5071106  47.1389008  33.7421465  50.6656456  48.5213518
  32.8957772  49.7562838  47.3040152  28.7147737  52.6448774  46.4600468
  27.5740337  52.5319815  46.8173981  28.9613152  52.8136635  45.2148676
  29.8574185  53.1884623  44.9380589  27.9793835  52.9886580  44.2335415
  26.9880533  52.7568817  44.6229553  27.9512024  54.4791126  43.8412333
  28.9819741  54.7586632  43.6233807  27.2952890  54.6387005  42.9854250
  27.3881555  55.5675459  45.0991678  26.0930371  55.3409338  44.8620749
  28.1926775  52.0787191  43.0119801  29.3250799  51.7518616  42.6917839
  27.1487427  51.7035580  42.2801447  26.2444448  52.0628738  42.5507736
  27.1748662  50.9002686  41.0050249  27.6371813  49.9221087  41.1375999
  25.7099676  50.6286001  40.5538750  25.2655053  51.6200542  40.4668808
  25.1005340  50.0730848  41.2666845  25.8550310  49.8533869  38.8797617
  27.9642916  51.6726255  39.9757409  27.5919700  52.7596951  39.5982718
  29.0922928  50.9933949  39.5239186  29.2949963  50.0523853  39.8297167
  29.9821496  51.6442537  38.5131359  30.2306437  52.6478958  38.8581872
  31.2806106  50.8387995  38.4454203  31.5274596  50.5387688  39.4638228
  31.0860109  50.0151539  37.7585125  32.4184799  51.7496109  37.9388022
  32.1248722  52.3375320  37.0691824  32.5186586  52.4371910  38.7786222
  33.7185383  50.9298086  37.5570726  33.5688066  49.9952364  38.0976772
  33.7259293  50.5972242  36.5190792  34.9641800  51.6789818  37.9397631
  35.8399844  51.3177538  37.4007106  34.8222160  52.7046204  37.5991464
  35.2682996  51.4294815  39.3714142  34.4944239  51.0038185  39.8613381
  35.9469318  50.6818151  39.3948126  35.6485724  52.1919918  39.9137044
  29.2294168  51.8211508  37.1271920  29.5495772  52.7036572  36.3065314
  28.3415389  50.8456564  36.7521524  28.0843306  50.1817846  37.4685478
  27.7730489  50.7788610  35.4353285  28.5586166  50.8446026  34.6825552
  27.0590496  49.4356680  35.2702570  27.7913427  48.6283112  35.2656817
  26.3842916  49.3150139  36.1177492  26.1698127  49.3447065  33.9780164
  26.0673666  48.2904339  33.7208867  25.2598691  49.9049520  34.1930270
  26.8832636  49.8469591  32.7243710  27.9729986  49.3159485  32.4448204
  26.2704873  50.7152510  31.9509149  26.6745377  50.8213282  31.0313535
  25.3397584  51.0729885  32.1117544  26.7545176  51.9827509  35.1742196
  26.8477821  52.7202272  34.2204785  25.8937502  52.2890282  36.1377001
  25.9893775  51.7914820  37.0114303  24.8718166  53.3195972  36.0384560
  24.9582911  53.7863827  35.0572658  23.5562468  52.5597095  36.1786461
  23.7104750  51.5278721  35.8630061  22.8502679  53.1629372  35.6078482
  23.0143213  52.2375393  37.8927708  24.9794507  54.4856215  37.0786738
  24.6002030  55.6242323  36.7656374  25.6254101  54.3524647  38.2717466
  26.0003757  53.4205151  38.3765006  26.0804033  55.4685497  39.1424274
  26.6549802  54.9878025  39.9341631  27.0695639  56.4586496  38.3920312
  26.5561891  57.0388269  37.6252556  27.4775004  57.1430016  39.1359115
  28.3104897  55.7109547  37.8690529  28.8673139  55.2234936  38.6693192
  28.0230021  54.9443960  37.1494389  29.3180108  56.6615582  37.1630096
  29.4911909  57.8193331  37.3962164  30.1837492  56.1137009  36.3375258
  30.8759832  56.6432571  35.8271480  30.1236320  55.1202536  36.1656427
  24.9489856  56.1594582  39.7548890  25.1533675  57.2236109  40.3519011
  23.7657666  55.6275654  39.6029258  23.7584472  54.7999716  39.0240145
  22.5013971  56.2888479  39.9425602  22.4747849  57.3618650  39.7527456
  21.4412117  55.6335974  39.0593719  21.6768742  55.7051516  37.9975605
  21.3457251  54.5625210  39.2376423  20.0382161  56.1813736  39.2867041
  19.3570185  55.5924940  38.6724639  19.7230756  56.0173702  40.3171825
  19.8366904  57.6306343  38.8094568  20.4385924  58.0256176  37.7762794
  19.0720630  58.4019852  39.4027948  22.2830439  56.0723972  41.4149332
  22.0301294  57.0613956  42.0678997  22.5078988  54.8640060  42.0094681
  22.6685810  54.0590477  41.4209747  22.1576023  54.5851994  43.4387064
  21.9135666  55.5504751  43.8823175  20.9424686  53.6341572  43.4047747
  20.1595473  54.0240717  42.7543116  21.4140105  52.2429895  42.8578377
  22.1889591  51.7751932  43.4650612  20.4949713  51.6572046  42.8757763
  21.7427492  52.4220800  41.8341351  20.5267930  53.3977699  44.7250652
  20.4320693  54.2428589  45.1705408  23.3249831  54.0165520  44.2216396
  24.3580604  53.6231709  43.6687136  23.2496262  54.2225790  45.5642509
  22.2870946  54.4181013  45.7996273  24.1382074  53.7629890  46.5910625
  25.2009487  53.8999033  46.3912296  23.9376020  54.8566580  47.6859903
  24.2031384  55.8255529  47.2630978  22.9399490  54.8539352  48.1250620
  24.8995304  54.5907450  48.8601685  25.5365944  53.7283182  48.6640406
  25.4477143  55.5324507  48.8882208  24.1269970  54.3988991  50.2236319
  23.4798598  55.3798962  50.7263660  24.2778111  53.2915878  50.8522463
  23.8759875  52.3640823  47.1132231  22.7598715  52.0787001  47.6520395
  24.8907351  51.5155840  47.0075178  25.8171344  51.7774200  46.7020130
  24.8971438  50.1316643  47.5626945  23.9498234  49.6335745  47.3563242
  25.9819365  49.3025589  46.8391562  26.9355154  49.8277903  46.8932199
  26.2867308  47.9613304  47.5723267  25.5132866  47.2138929  47.3956203
  27.2279930  47.6312876  47.1327829  26.4373755  48.0151367  48.6505270
  25.7507706  49.2958784  45.3366375  25.7320118  50.3111410  44.9404287
  26.5474558  48.6682034  44.9373627  24.3752050  48.6343622  44.9926329
  24.1675758  47.8925371  45.7637930  23.5948348  49.3952799  45.0035715
  24.4714403  48.2087278  43.9937925  25.0156784  49.9862194  49.1124153
  24.2163301  49.3249607  49.7419357  25.9381628  50.7681894  49.6678782
  26.4283919  51.4096546  49.0610075  26.1491513  50.7855415  51.1053038
  25.1831985  50.8872032  51.5999699  26.8065739  49.4154215  51.5009832
  26.2724853  48.6140299  50.9904766  28.2186770  49.2189693  51.2494898
  28.8168049  50.0248718  51.6747808  28.6261344  48.2696009  51.5970230
  28.3209419  49.3819809  50.1766109  26.6547513  49.1710949  52.8675032
  27.0315218  48.3123827  53.0730772  26.9399834  51.9804859  51.4750385
  27.6646376  52.5930738  50.6634665  26.9438910  52.2739601  52.7679348
  26.4242649  51.6551590  53.3738899  27.9176307  53.0873299  53.4866571
  27.9887438  54.0758896  53.0330086  27.4363661  53.4916496  54.9533224
  26.5879917  54.1727352  55.0202656  27.1083140  52.3275852  55.7916832
  27.9521155  51.6659594  55.9875202  26.8600273  52.6642752  56.7982101
  26.3756013  51.6486549  55.3554630  28.4166980  54.2114687  55.5020475
  28.1871200  55.0708055  55.1408911  29.2687988  52.3268080  53.4787846
  29.3501425  51.1430550  53.6881542  30.3763294  53.0186224  53.2475710
  30.3683758  54.0250587  53.1631756  31.6775107  52.3937082  53.2874298
  31.5782547  51.5524912  52.6014233  32.7185297  53.4171247  52.7125311
  33.6008835  52.8541422  52.4082232  32.4108815  53.7932158  51.7368174
  33.0634475  54.7384882  53.5278320  33.0645752  55.5630016  52.8148937
  32.3849082  54.8486376  54.3737364  34.5214009  54.6000099  54.0221977
  34.5468879  53.6376667  54.5334148  35.1129317  54.5696878  53.1071711
  35.0471067  55.7793903  54.8631525  36.1086583  55.5870628  55.0187683
  35.0285292  56.7125702  54.3001795  34.3409324  55.8184433  56.1150646
  34.4030118  54.9156857  56.5637016  34.5980644  56.4917326  56.8226433
  33.4124136  56.1436176  55.8865547  32.0044565  51.8488932  54.6656370
  32.9927635  51.1488485  54.7509098  31.2826514  52.1955872  55.7309389
  30.5305219  52.8632975  55.6383944  31.6436601  51.7099047  57.0992947
  32.7067018  51.8799210  57.2700024  30.9151506  52.6017570  58.1459188
  29.8361182  52.4489641  58.1669426  31.3343930  52.3993587  59.1315031
  31.2967229  54.0374136  57.9311466  32.4616933  54.3901157  58.0494356
  30.4156995  54.8680305  57.4445248  30.7882690  55.7210970  57.0526409
  29.4503117  54.6940279  57.2039843  31.3847566  50.2098751  57.2404957
  31.9218230  49.5942307  58.1467056  30.6289458  49.5646620  56.2943935
  30.1661325  50.1448154  55.6093168  30.3203917  48.1000710  56.3798046
  30.1457691  47.8742838  57.4317694  29.0966439  47.7221394  55.5164385
  29.2966604  47.8266144  54.4500542  29.0221190  46.6552734  55.7270384
  27.7559590  48.4609175  55.9298372  27.9775381  49.5145845  55.7601595
  27.0481181  48.1060123  55.1807690  27.2394633  48.1510544  57.3480082
  26.1611652  48.6780834  57.6808500  27.8954244  47.3728800  58.0935860
  31.4297247  47.1514273  55.8862543  31.2966728  45.9190035  56.0870266
  32.5078297  47.6969957  55.2468538  32.6173043  48.6862850  55.4183626
  33.6874676  46.9385624  54.9072742  33.3878756  46.0826635  54.3024778
  34.6565008  47.8454876  54.0692425  34.9584508  48.7065029  54.6655560
  35.9574270  47.1565914  53.6195421  35.7816815  46.2864685  52.9870033
  36.6005993  47.8525972  53.0810261  36.5415764  46.8518734  54.4878864
  33.9473295  48.3528662  52.7642012  33.8252282  47.6199770  51.9666672
  32.9218483  48.6576128  52.9730463  34.6434188  49.5745516  52.1037722
  34.4393826  50.5060244  52.6318121  35.7281184  49.4685984  52.0864153
  34.2753506  49.7346544  51.0903645  34.3062925  46.3468552  56.2196302
  34.4545484  47.0797443  57.2071028  34.6729994  45.1089096  56.2391233
  34.7574091  44.6788931  55.3291416  35.2348661  44.3533468  57.3852062
  35.6342745  45.1870966  57.9626417  34.0488434  43.6334705  58.1240463
  34.5170689  43.4499598  59.0911007  33.2292867  44.3319416  58.2930708
  33.5989475  42.3031187  57.5487518  33.0446029  42.2280502  56.2771082
  33.0335379  43.1415701  55.7011271  32.4175620  40.9749460  55.8294058
  32.0075345  40.8659315  54.8362303  32.3722029  39.8857045  56.7480040
  31.9918394  38.9339280  56.4076424  33.1298399  39.9216318  57.9489183
  33.3898306  39.0409827  58.5174847  33.6817789  41.1623001  58.3509302
  34.0981746  41.1624956  59.3474340  36.2261057  43.2392883  56.8785238
  36.1539912  42.8174686  55.7122087  37.1704984  42.8344202  57.6992702
  37.0862365  43.1989288  58.6374235  38.2535768  41.9262600  57.4390984
  38.6391282  41.9297504  56.4195681  39.4385171  42.2759819  58.3995390
  39.6352673  43.3433390  58.2988358  39.1588044  41.9034004  59.3849564
  40.6579542  41.6569853  57.8751040  40.6840515  40.7112408  58.0378437
  37.6846194  40.4406214  57.8198051  37.6676059  40.0310850  58.9968395
  36.9916773  39.8857498  56.8728399  36.7343330  40.4195070  56.0549259
  36.4902806  38.5007167  56.9742870  35.9144759  38.5619688  57.8977633
  35.6313324  38.1039166  55.7234287  34.8459888  38.8574290  55.6638288
  36.3049746  38.1601954  54.8683596  35.0494885  36.7028403  55.7799339
  35.8897901  36.0103440  55.7304955  34.1285348  36.5136552  56.9371128
  33.1737709  37.0273137  56.8244886  33.9492702  35.4547143  57.1231413
  34.6992636  36.8114209  57.8167152  34.1889358  36.4464021  54.5409107
  34.7469831  36.4394498  53.6046219  33.7554169  35.4585218  54.6966171
  33.3833790  37.1762586  54.4603634  37.6681304  37.4603939  57.2113609
  37.5347471  36.6759014  58.1367254  38.7168932  37.6906538  56.3961458
  38.6522722  38.5245895  55.8300400  40.0486374  37.0859241  56.4643908
  39.9961805  36.0037160  56.5834379  40.7502937  37.1671462  55.1154137
  39.9273419  36.9568014  54.4323301  41.0285234  38.2015920  54.9138737
  41.8511963  36.1615229  55.0933552  41.7286682  35.8403015  54.1970301
  40.9936571  37.8110719  57.5258636  40.9588623  39.0452218  57.5395441
  42.0116758  37.1240640  58.0869341  41.9629478  36.1255169  57.9433012
  43.2940722  37.7280283  58.5129452  43.1362391  38.3117223  59.4198608
  44.2700481  36.6149330  59.0388775  43.6877346  36.0886097  59.7951794
  44.3052912  35.9901166  58.1464291  45.5931950  37.0334506  59.6356726
  45.4626274  37.9896235  60.1424122  45.9518719  36.3536644  60.4085541
  46.6504526  37.2559524  58.5625219  47.0366907  36.3303041  58.1357908
  46.2794542  37.8350759  57.7168989  47.7227592  37.9431772  59.2284107
  47.8880405  37.7784324  60.2110815  48.6287355  38.6606765  58.6560202
  49.6438789  39.1555119  59.2850113  49.4763660  39.1377854  60.2808666
  50.2740526  39.8273778  58.8707829  48.5952902  38.8396716  57.3274755
  47.7740765  38.5473967  56.8172884  49.4688368  39.1257524  56.9089413
  43.9025593  38.6808252  57.4490595  44.5763969  39.5952177  57.8956747
  43.8181400  38.3980966  56.1943007  43.3080244  37.5675726  55.9295225
  44.5120144  39.1033840  55.1495504  45.5389166  39.3424392  55.4260159
  44.6094704  38.2326126  53.8913965  43.6689329  38.2005405  53.3414316
  45.2648449  38.7584805  53.1971025  45.1042461  36.7699742  54.1121769
  44.3839169  36.3032794  54.7840548  45.0777149  36.2317753  53.1646824
  46.5273523  36.5589356  54.7650719  47.2573614  37.4371290  55.2452421
  46.8873978  35.3867149  54.9375963  43.9532375  40.4995489  54.8684168
  44.7607613  41.3608313  54.4975042  42.7441263  40.7605934  55.3173256
  42.3063993  39.9288702  55.6870985  42.0116711  42.0072079  55.1268148
  41.7288637  42.4371147  56.0876989  42.5711727  42.7088833  54.5081711
  40.6578302  41.7597723  54.4371080  40.0485086  40.6799555  54.5180559
  40.1190710  42.8072405  53.7467957  40.5566072  44.2062187  53.6864662
  41.2594080  44.2730904  52.8559828  41.1360216  44.5655727  54.5369005
  39.3161631  45.0848722  53.4320116  39.3215251  45.4643059  52.4102020
  39.2446113  45.9412241  54.1025639  38.1435990  44.1647530  53.6123896
  37.2473049  44.4497681  53.0614567  37.8446651  44.2150831  54.6593857
  38.7662506  42.8034258  53.1997299  38.1733298  41.9989538  53.6349058
  38.6211801  42.5562763  51.7423439  37.5479317  42.6848984  51.1475134
  39.6617508  42.1598673  51.0691023  40.5763006  42.1922159  51.4964867
  39.6595716  42.0217180  49.6124458  38.7161946  41.5515566  49.3347979
  40.0055313  43.3842230  48.9466095  39.5385218  44.1934109  49.5080519
  41.0570574  43.6626339  49.0165234  39.4824028  43.5067749  47.4950790
  40.1380301  42.9168987  46.8545341  38.5181618  43.0029011  47.4283409
  39.4457531  45.2924681  47.0743322  41.2265587  45.5746126  46.7837763
  41.4793968  46.5816784  46.4521217  41.8807268  45.5515194  47.6553488
  41.5666246  44.8794460  46.0161877  40.6850719  41.0249233  49.1253614
  41.8672180  41.0988045  49.4239855  40.2904701  40.1467419  48.1971979
  39.3136907  40.1684427  47.9411983  41.1472797  39.1912174  47.5806189
  42.1683884  39.5722556  47.5646877  41.2457085  37.9018927  48.4651661
  41.8368530  37.1742630  47.9091024  41.6800880  38.1305385  49.4383717
  40.2811146  37.5433660  48.8244963  40.7283211  38.8940120  46.1558056
  39.5397902  38.8487983  45.8884239  41.6465569  38.7992835  45.2454853
  42.6104498  38.9351439  45.5148411  41.3662767  38.1260371  43.9692926
  40.5550480  38.5864735  43.4053707  42.5197554  38.1214786  43.0561399
  42.2303581  37.7006626  42.0931959  42.7773476  39.1547227  42.8234386
  43.3392000  37.4973130  43.4125662  41.0301733  36.6257453  44.2156029
  41.7423582  35.9593058  44.9510288  39.9651432  36.0621572  43.6080742
  39.3207431  36.7220497  43.1964970  39.6855593  34.5812321  43.4784746
  40.5299282  33.9789009  43.8136435  38.4743714  34.1942215  44.3233204
  37.5938153  34.8092580  44.1377068  38.3509541  33.1197667  44.1875887
  38.7846851  34.3332624  45.8353996  39.1819572  33.2622504  46.6942930
  39.4927311  32.3711801  46.1691141  39.4333649  33.4447789  48.0341673
  39.8689771  32.6127338  48.5674047  39.1302752  34.6246719  48.6210966
  39.2664886  34.7929549  49.9436140  39.1958523  33.9526844  50.4024792
  38.6347747  35.6685686  47.8485250  38.2861185  36.5589547  48.3505774
  38.5221672  35.5323696  46.4501333  38.0609179  36.3012981  45.8481359
  39.5082998  34.1315293  42.0282412  39.1542172  34.9219108  41.2240934
  39.7942758  32.8680086  41.6570377  40.1600695  32.2737169  42.3871803
  39.5019674  32.2595978  40.3311062  39.4128299  33.0113220  39.5468402
  40.6168795  31.3256526  39.8049068  41.5739584  31.8441224  39.8622704
  40.7423210  30.0170636  40.5758667  39.8782778  29.3857002  40.3687382
  41.7066288  29.5731044  40.3286505  40.7218122  30.3661799  41.6082382
  40.3026772  31.0653925  38.3431959  40.9388590  30.2646613  37.9660892
  39.2843103  30.7153368  38.1744003  40.4880428  31.9470596  37.7296782
  38.1460667  31.4569473  40.4137135  37.9305649  30.6510162  41.3124228
  37.2063184  31.7792726  39.5494032  37.5156140  32.3077965  38.7462187
  35.9326291  30.9791780  39.3177867  35.4212761  30.7557797  40.2541161
  34.8584580  31.9473934  38.6564064  33.9164567  31.7620158  39.1725183
  35.1431012  32.9896092  38.8008666  34.6590948  31.7710304  37.1673870
  35.4424167  31.2049007  36.4738011  33.5265112  32.1562767  36.7471766
  33.3413720  32.2324586  35.7572174  32.9182959  32.6594210  37.3772717
  36.1994982  29.5921731  38.6030388  37.2680020  29.3993330  37.9900122
  35.1161981  28.7617755  38.5414195  33.6927652  28.8882446  38.9372945
  33.2185006  29.8655009  38.8470602  33.5816383  28.5379481  39.9634743
  32.9709172  27.7922249  38.1188822  32.8593445  28.0593061  37.0680165
  32.0233059  27.5098753  38.5775900  33.9339995  26.6337347  38.1741548
  33.6668682  25.9593582  37.3605466  33.9927745  26.1707401  39.1591835
  35.2396917  27.4407315  37.8750467  35.9565353  26.7685366  38.3466291
  35.4594541  27.4704552  36.3469958  35.8037734  26.4633036  35.7638001
  35.4716802  28.6584568  35.6871510  35.2443480  29.5258403  36.1519837
  35.7650399  28.7360740  34.2192101  36.0775208  27.8128648  33.7312126
  34.5238018  29.1809964  33.5390091  34.0808654  30.1200438  33.8708091
  34.8771501  29.3399978  32.5202036  33.4197307  28.0735087  33.3852077
  33.3195448  27.0650506  32.4259329  32.2827816  26.2483978  32.7676582
  31.7217970  25.5703545  32.1415973  31.6244268  26.8250608  33.8307786
  30.8221197  26.4337802  34.3033290  32.3733044  27.9611635  34.2106366
  32.1346450  28.6525393  35.0052691  37.0047903  29.5721555  33.9776278
  37.1055865  30.0304008  32.8789377  37.9406023  29.6801209  34.9146461
  37.8124261  29.3873262  35.8727384  39.3043542  30.2740073  34.6627641
  39.8933792  29.9242401  35.5105925  39.6983361  29.9092698  33.7141585
  39.3673825  31.8003988  34.6890283  40.4759789  32.3831367  34.5784926
  38.2380128  32.5109887  34.9569941  37.3415446  32.0499992  35.0197554
  38.2611251  33.9584780  35.1988816  39.0750980  34.3337631  34.5786309
  36.9621825  34.6704698  34.7377014  36.1734605  34.4135761  35.4448247
  37.1291590  35.7376957  34.8834825  36.6611814  34.4674277  33.2657695
  37.2348738  35.3978157  32.3861480  37.7680635  36.2317753  32.8181481
  37.1060348  35.2091241  31.0156274  37.6442552  35.8046484  30.2930784
  36.3966370  34.1245794  30.4944062  36.3242102  33.8974190  29.1621518
  36.5056252  34.6852589  28.6444664  35.6751513  33.3540177  31.3893318
  35.0986028  32.5275016  31.0009217  35.8934259  33.4026408  32.7632117
  35.4398060  32.6911330  33.4372950  38.6517739  34.2703533  36.6199827
  38.2068348  33.5739756  37.5278783  39.2873025  35.4268003  36.8744349
  39.6908736  35.8451104  36.0484529  39.6350193  36.0481834  38.1461692
  39.3680310  35.2840233  38.8761520  41.1831141  36.2188005  38.2506561
  41.4782095  36.9336462  37.4825335  41.6044617  36.9818544  39.4931054
  41.0905361  36.5277004  40.3402948  42.6763535  36.8918824  39.6693134
  41.3383722  38.0221033  39.3055367  41.9180393  34.8645163  38.0618882
  41.7538071  34.4192624  37.0806265  42.9807377  35.1068830  38.0673432
  41.8029499  34.1515803  38.8783312  38.8800430  37.3753548  38.4201527
  39.0925050  38.4001184  37.7657413  38.0963659  37.3692012  39.4880033
  38.1278372  36.5253329  40.0420761  37.5002146  38.6252475  39.9420834
  37.6106715  39.4833398  39.2790747  35.9789848  38.2462430  40.1816940
  35.9158540  37.4025011  40.8688736  35.5151081  39.1614747  40.5494833
  35.3447104  37.8689051  38.8479543  34.7148323  38.7677741  37.9119587
  34.4153094  38.0093050  36.8308139  34.0060043  38.3962488  35.9093237
  34.7741055  36.7412639  36.9979262  34.5548511  36.0134006  36.3329124
  35.3773808  36.5728188  38.2876635  35.8703828  35.7074571  38.7053943
  37.9208422  39.0371370  41.3380957  38.1859589  38.2536411  42.2185612
  38.0403256  40.3847933  41.4701366  37.9617405  40.9238911  40.6196690
  38.5209489  41.0312796  42.6981258  39.1341591  40.2372932  43.1243420
  39.3165779  42.2733402  42.3925495  40.0986242  41.9757223  41.6940308
  38.6639237  43.0095768  41.9233942  39.8812795  42.9866076  43.5773754
  39.1960096  43.6159229  44.1452360  40.3385878  42.2161531  44.1981506
  40.8918619  44.0402079  43.1509304  40.6551981  44.6898651  42.1126080
  42.0108843  44.1782331  43.7376833  37.3076487  41.2697649  43.7063885
  36.4564133  42.1354818  43.4886026  37.3251367  40.4599094  44.7427225
  38.0776405  39.7862601  44.7482443  36.2462378  40.2586031  45.6894588
  35.3200221  40.6729126  45.2912474  36.0649776  38.7906742  46.0178041
  36.8255043  38.3784223  46.6809416  34.8476577  38.5936165  46.8571949
  34.6653724  37.5258017  46.9782114  34.8919082  39.0337038  47.8534174
  33.9778280  39.1372657  46.4884901  35.9646344  37.9141045  44.7396994
  36.9772577  38.0162668  44.3494940  35.9639955  36.8540502  44.9934435
  34.8971152  38.1864643  43.6851931  35.0709891  37.5453925  42.8209591
  33.8747025  38.0551362  44.0394878  34.9925375  39.1608858  43.2061291
  36.5528941  41.0788059  46.9282913  37.5703096  40.7540941  47.5422287
  35.6315947  42.0149374  47.2668409  34.8958492  42.1462440  46.5874720
  35.4745674  42.8171062  48.4982109  36.4613891  42.9716825  48.9345503
  35.0020552  44.2365599  48.0963469  35.6973839  44.6727276  47.3791456
  34.0209198  44.2001867  47.6229095  34.8539662  45.2507830  49.2411757
  34.3976998  44.6297026  50.0120068  36.1319280  45.7093811  49.8149586
  36.8101168  46.2341261  49.1420507  35.9509254  46.3606787  50.6700277
  36.5926027  44.8361921  50.2769423  34.1141176  46.5277672  48.8094711
  33.7576890  46.9448900  49.7513103  34.8431635  47.1639252  48.3075762
  33.3302116  46.2660980  48.0987501  34.5769262  42.0830441  49.5014000
  33.4020281  41.8522835  49.2572021  34.9688220  41.8345404  50.7314348
  35.8748388  42.1342659  51.0622025  34.1153860  41.2789297  51.8245411
  33.3233905  40.6592894  51.4039564  34.8148060  40.3901482  52.7932262
  34.1449022  40.0645590  53.5890388  35.4565477  39.1661048  52.0643425
  35.5297565  38.2555842  52.6590633  34.8886085  38.7265682  51.2443733
  36.4217949  39.3253207  51.5836716  35.9501290  40.9375048  53.3561325
  35.7653451  41.7839718  53.7695932  33.3195448  42.4574471  52.5134373
  34.0019202  43.3357906  53.1157303  31.9934607  42.5327063  52.5333881
  31.5634537  41.8151569  51.9674158  31.1806631  43.5966873  53.1416130
  31.8520498  44.2252684  53.7266111  30.6502914  44.5622778  52.0189095
  29.9752975  44.0475750  51.3351250  29.9507236  45.7386923  52.7092218
  29.6704793  46.4743090  51.9552708  29.1615367  45.4983377  53.4216166
  30.7866216  46.1899519  53.2437801  31.7231870  45.1699781  51.1551905
  32.6126909  45.5151892  51.6821718  32.0388627  44.3664646  50.4897499
  31.2549281  45.8845520  50.4782724  30.0559831  42.9740095  54.0250778
  29.3493247  42.0823002  53.5812283  29.9000621  43.3401346  55.2806234
  30.5335116  44.0605450  55.5966043  28.8751650  42.7824020  56.2266445
  29.0853286  41.7134047  56.2609291  28.8998866  43.4167290  57.5797987
  29.9108720  43.2455778  57.9495525  28.8284183  44.5042515  57.5627184
  27.9161000  42.9005861  58.6155939  27.3646688  43.7429810  59.5214319
  27.7039409  44.7648096  59.4367790  26.4639354  43.3366108  60.5396891
  26.0156250  44.0357542  61.2300730  26.1079168  41.9455194  60.6128120
  25.0785542  41.5624046  61.4464140  24.5841503  42.2897482  61.8312931
  26.6801071  41.0599375  59.7093964  26.4424944  40.0080299  59.7680330
  27.5754523  41.5358353  58.7284803  27.9399586  40.8234978  58.0031443
  27.4579358  42.9605722  55.6386900  26.6720891  42.0383787  55.5716324
  27.1370625  44.1817808  55.1057959  27.9157639  44.8179007  55.0105286
  25.7951474  44.5988703  54.5866203  25.2238131  43.7000990  54.3544865
  24.8691702  45.3281593  55.6554365  25.3620362  46.2235451  56.0342169
  23.9044309  45.5640650  55.2062893  24.5988631  44.3321180  56.8421984
  23.9699841  43.5237837  56.4690971  25.5238581  43.9046383  57.2291708
  23.7937975  45.0417566  57.8975868  24.4206858  45.6504154  58.5492373
  23.0165982  45.6236029  57.4020910  23.2571507  44.0364027  58.8675928
  22.7775788  43.2147169  58.3356619  24.0492082  43.4994173  59.3895006
  22.1162271  44.5056963  59.7738886  22.1428680  43.8442278  60.5366850
  22.2695875  45.4122257  60.1919651  21.2405157  44.4736528  59.2716932
  25.6592607  45.5409050  53.3275080  26.5163207  46.3619423  53.1380653
  24.5450377  45.3658009  52.6173019  23.8385558  44.7003555  52.8968954
  24.2541218  46.2724161  51.4386225  24.5678663  47.2907066  51.6683054
  25.0888300  45.8172274  50.2597618  24.9144888  44.7429466  50.1996136
  24.7739983  46.3738871  49.3770885  26.1535621  45.8808756  50.4842472
  22.7197242  46.2673378  51.2520981  22.0221353  45.5983973  51.9279146
  22.3794317  47.2014284  50.2943182  23.0544353  47.8179026  49.8648691
  21.0406256  47.3219252  49.7322559  20.5389190  46.3568783  49.8034811
  20.3859115  48.4727430  50.5838156  20.7127690  48.2887125  51.6072369
  20.7191062  49.4502735  50.2352190  18.7033463  48.4702492  50.5973530
  18.6598623  49.2061806  51.7115402  21.1795640  47.7880621  48.2579422
  22.1886349  47.7939224  47.6126337  19.9734068  47.9815102  47.6607656
  19.1161466  48.0039644  48.1943417  19.8411322  48.0391550  46.1792994
  18.7733388  48.0815983  45.9645462  20.2900887  49.4783401  45.7067585
  21.3271523  49.7079039  45.9515047  20.2748513  49.6459532  44.6298313
  19.4739008  50.5331469  46.3441277  18.2836103  50.6826973  46.0404491
  20.0615311  51.3387871  47.1424150  19.5204639  52.1858358  47.2416782
  21.0660362  51.3572264  47.2460032  20.4432845  46.8341780  45.4171181
  20.7673812  46.9832659  44.2243052  20.3728032  45.5989838  45.9759617
  19.9796987  45.5333519  46.9040012  20.8875012  44.4433403  45.3119230
  21.2481713  44.6057749  44.2962313  22.1284795  44.0044880  46.1552715
  21.8910742  43.9356136  47.2168684  22.3121905  42.9380608  46.0245562
  23.4660602  44.7191143  45.9231377  23.4492350  45.7835388  46.1572742
  24.5324802  44.1310883  46.8474007  24.7445822  43.1497240  46.4230871
  25.3952265  44.7894192  46.7455578  24.0779257  44.1366577  47.8380823
  23.9990544  44.5301199  44.4490576  23.3874869  45.1922131  43.8361025
  24.9850297  44.9722624  44.3060112  23.9004564  43.5364342  44.0120506
  19.8413253  43.3082676  45.1490688  19.4909310  42.7256155  46.1993551
  19.2760873  43.1170177  43.9634752  19.7866988  43.5993147  43.2376862
  18.4036815  42.0548773  43.6700201  17.5796020  41.8922043  44.3646622
  17.7809405  42.4557638  42.2712231  18.5606194  42.5674534  41.5177393
  17.2251618  41.5842342  41.9253206  16.7814410  43.5744715  42.3837137
  16.4874196  44.0286922  43.5051489  16.1553574  44.0550661  41.3446712
  15.3574908  44.6676636  41.4353704  16.4698863  43.8653994  40.4038191
  19.2390537  40.7323313  43.5882521  20.4688334  40.6774330  43.4225988
  18.6237848  39.5944428  43.7825584  17.6271605  39.5768213  43.9454412
  19.2379987  38.2290792  43.8359737  20.3094816  38.2551622  43.6376238
  19.0673518  37.7197099  45.2516651  18.0145907  37.7939367  45.5242157
  19.2405462  36.6516685  45.3835535  19.9812162  38.3787346  46.2926865
  19.7371614  39.4372845  46.3821888  19.7252667  37.6703262  47.5950623
  20.4975629  37.8440833  48.3443785  18.7700939  38.0091262  47.9962587
  19.7120345  36.5902615  47.4488258  21.3643169  37.8779387  45.9266996
  21.7666960  38.2412291  44.9810696  22.0686460  38.1400347  46.7162085
  21.4327216  36.8043709  45.7509899  18.6259103  37.1966147  42.9053545
  17.3828495  37.1324229  42.7547789  19.5466852  36.4592147  42.2281361
  20.4815602  36.8407130  42.2519970  19.1903484  35.4752278  41.2414932
  18.2312262  35.7168436  40.7834482  20.1833963  35.4140973  40.1020050
  21.1563110  35.1551008  40.5196905  19.8614323  34.3266678  39.0776777
  19.0991938  34.5762038  38.3395529  20.7759309  34.2248368  38.4933639
  19.6818697  33.3963490  39.6165323  20.2630472  36.8284917  39.4553185
  19.3242753  37.3564291  39.6229172  20.9880710  37.4098706  40.0249147
  20.6824875  36.9641519  38.0011964  19.9370432  36.4513159  37.3934007
  20.9385085  37.9817009  37.7059889  21.6024876  36.4058971  37.8278327
  19.0870667  34.1062570  42.0170403  20.0648355  33.4020543  42.2471952
  17.7960598  33.7313008  42.2083569  17.0476806  34.3192172  41.8701506
  17.5041306  32.3703265  42.6388073  16.4459932  32.1393967  42.5158501
  18.0569696  31.6076946  42.0902920  17.8079355  32.0599627  44.1374969
  17.4224317  32.8171492  45.0074339  18.3285224  30.8350897  44.4129467
  18.4887135  30.1580501  43.6807871  18.6399961  30.3832245  45.8116388
  18.3250046  31.0591173  46.6066504  17.8180313  29.1725516  46.0660362
  17.9282010  28.5319352  45.1910639  18.1434429  28.6567307  46.9694376
  16.2989521  29.6208668  46.2339926  16.1541939  30.2244043  47.1300364
  16.0519326  30.0955725  45.2843952  15.3389895  28.4868598  46.4082479
  15.6023252  27.9414320  47.3144865  14.3998373  28.9751840  46.6683245
  15.2257764  27.5067544  45.3012657  16.0932028  27.2547722  44.8494101
  14.1495025  26.8494606  44.8531961  14.2595160  26.0745549  43.8183260
  15.0693309  25.9664869  43.2245064  13.5949039  25.3245306  43.6924076
  12.9999590  26.8585682  45.4396534  12.7977574  27.5242019  46.1718750
  12.1882856  26.4315510  45.0166368  20.1433516  30.0304103  45.9989834
  20.8430552  29.8687243  44.9463415  20.7269526  29.9381590  47.2361565
  20.0001764  30.1153946  48.4700155  19.5926118  29.1073871  48.5468864
  19.4071090  31.0267758  48.3940935  21.0944366  30.3077793  49.5207834
  20.7649446  29.9257183  50.4869938  21.4795971  31.3258600  49.5779610
  22.2125411  29.4414639  49.0232468  21.9113541  28.4377074  49.3230152
  23.1729150  29.7299361  49.4505262  22.1001840  29.5723248  47.4835730
  22.7146196  30.3999496  47.1291590  22.6081800  28.2142544  46.7794847
  21.9385839  27.1314526  46.8109369  23.8681579  28.2913303  46.3428783
  24.2953086  29.2053890  46.2965298  24.6614432  27.2268105  45.6740093
  24.2177987  26.2640357  45.9276724  24.7137260  27.3869371  44.1086388
  23.6538553  27.3093557  43.8662386  25.2235126  28.2991242  43.7985849
  25.4468274  26.3168526  43.5988617  25.5249000  26.4130902  42.6468945
  26.0893917  27.2355652  46.2111044  26.6396618  28.2870841  46.5643930
  26.7831826  26.1307383  46.2073994  26.2649488  25.3916144  45.7543659
  28.1357121  25.8518147  46.7941570  28.6005402  26.8116426  47.0194864
  28.0721807  24.9085355  47.9668665  29.0496612  24.5872307  48.3265829
  27.3199010  25.4345441  49.1868782  27.3285890  24.8291445  50.0932550
  27.6246452  26.4400244  49.4771194  26.2803912  25.6232524  48.9187098
  27.3661971  23.7271523  47.5741148  26.4522672  23.9638734  47.4000502
  29.1773176  25.3375363  45.7382059  30.3046346  25.0381684  46.1730194
  28.8858533  25.2736926  44.4136477  28.0091977  25.6689048  44.1048050
  29.9469519  24.9905586  43.4676027  30.2870822  23.9848971  43.7146950
  29.3714571  24.9014854  42.1118212  28.6982894  24.0466595  42.1767902
  28.7515950  25.7451558  41.8083572  30.3610873  24.6007705  40.9452534
  30.7687116  25.5756140  40.6776190  31.2051058  24.0243626  41.3240528
  29.8242283  23.8374138  39.6642208  30.6153655  23.8672924  38.7237382
  28.7477994  23.2311702  39.5962429  31.1762977  25.9591317  43.5493374
  30.9800363  27.1441841  43.6392355  32.4117851  25.4409814  43.6090565
  32.4134302  24.4368672  43.7179089  33.6884022  26.2011075  43.5634708
  34.5080853  25.5567908  43.8813972  33.9574599  26.7278242  42.1531963
  33.4902358  25.9270024  41.5800571  33.4493613  27.6910472  42.1069384
  35.4209900  26.8149376  41.7336845  36.2330413  25.8824253  41.0900545
  37.4209356  26.4893055  40.8331537  38.3102584  26.0362816  40.4205084
  37.3507190  27.7932048  41.2511873  38.0728769  28.4992456  41.2610054
  36.1218858  27.9937720  41.7742968  35.8063388  28.9054751  42.2597122
  33.7029958  27.3207045  44.6155453  34.2354751  28.4113479  44.4138193
  33.1078601  27.0700121  45.8218718  32.7330184  26.1544299  46.0250998
  32.9428005  28.2160521  46.7376184  32.6135755  28.9792824  46.0324955
  31.8484712  27.9908490  47.7733898  30.9044266  27.7079821  47.3077011
  32.1604156  27.1402049  48.3793592  31.6648722  29.1058707  48.6004639
  30.9300685  28.9277005  49.1920042  34.2411280  28.6827230  47.4290514
  35.1906157  27.8964758  47.5155687  34.4217038  30.0118971  47.5207710
  33.6301255  30.5726409  47.2395706  35.6760669  30.6795931  47.8224468
  36.5096569  30.1363301  47.3773718  35.7115769  32.0785093  47.2468090
  34.7749472  32.5492144  47.5455761  36.5713835  32.6598692  47.5797606
  35.6708455  32.1107602  45.7547522  36.2817860  31.1573100  44.9740887
  36.7488146  30.2240205  45.2520323  36.0026813  31.4517236  43.6145020
  36.4189863  30.8678508  42.9032421  35.4290414  32.6687551  43.4963465
  35.1578474  33.4291077  42.2729158  35.4610872  33.1106925  41.2864780
  34.4381142  34.6246696  42.4622726  34.0377307  35.2004051  41.6409159
  34.0156102  35.0165653  43.7760639  33.3457422  35.8606911  43.8477087
  34.4204426  34.3205166  44.9184513  33.9864445  34.6650767  45.8454514
  35.1569915  33.1307149  44.8437357  35.8448577  30.9395361  49.3061495
  36.9859123  31.3543248  49.7097111  34.7602081  30.7450342  50.1147556
  33.9860201  30.2097726  49.7483873  34.8143959  30.8988643  51.5895796
  35.8110785  31.2535524  51.8521118  33.8503146  32.1217060  51.8946409
  32.8188229  31.8646908  51.6536617  33.9518571  32.2969317  52.9656601
  34.2328835  33.4625506  51.2106848  35.2539492  34.2610073  51.7568302
  35.6464195  34.0050602  52.7298927  35.8759308  35.1694298  50.9843874
  36.7237687  35.6723928  51.4255190  35.4262209  35.4578924  49.6540165
  35.9137630  36.1484933  48.9818716  34.4359922  34.6580100  49.1106606
  34.1457152  34.8373437  48.0859756  33.9115024  33.6136627  49.8468018
  33.1253290  33.0045319  49.4257355  34.2677069  29.6664739  52.3303080
  33.2891178  29.0740967  51.8011189  34.8441982  29.3209386  53.4891558
  35.9543657  30.0130796  54.0586567  35.7629871  31.0837603  54.1301870
  36.8209481  29.8123527  53.4286928  36.1644983  29.5100474  55.4334641
  35.3965950  29.9611330  56.0619116  37.1490121  29.7088528  55.8569098
  35.7788968  28.0739307  55.2425385  35.4721260  27.6868200  56.2142086
  36.5986180  27.4531746  54.8808527  34.6569633  28.0694079  54.1861153
  34.8787451  27.2080016  53.5561228  33.1747556  27.8552008  54.7010708
  32.7494693  28.4166503  55.7027912  32.4146819  26.9621706  54.0534782
  32.8167677  26.5578699  53.2198286  31.0464859  26.5960240  54.3133116
  31.0211253  25.5578494  53.9821720  30.8760047  26.6885042  55.3859186
  29.9658847  27.4625468  53.6620569  28.8024664  27.2298098  53.9003563
  30.3711224  28.5247302  52.9292631  31.3344550  28.7434602  52.7189064
  29.3693709  29.5284510  52.5332689  28.5137320  29.5324111  53.2085228
  29.9396801  30.9867835  52.6141644  30.8358073  31.1084390  52.0056772
  29.1767550  31.5367842  52.0632124  30.2644134  31.6269708  53.9440012
  31.5428233  31.5489483  54.5656157  32.3467612  31.0572386  54.0380716
  31.7972970  32.1513200  55.8003139  32.7715826  32.0651078  56.2582827
  30.7358694  32.9194069  56.3686371  31.0086846  33.4331870  57.5768280
  30.2606273  33.8638306  57.9970217  29.4560075  32.9742193  55.8271694
  28.7077403  33.5129976  56.3895035  29.2490339  32.4054170  54.5822525
  28.2744122  32.3793221  54.1176748  28.9302278  29.2164254  51.1164331
  29.7313881  28.9165401  50.2364159  27.6395655  29.2824507  50.9066725
  27.0390201  29.3854976  51.7121696  26.9267702  29.1552830  49.6475315
  27.4488688  28.4964156  48.9536953  25.6337810  28.4570742  49.9620485
  24.9236012  28.3972764  49.1373253  25.8252025  27.5410366  50.5209160
  25.0574946  29.0541935  50.6687641  26.6067767  30.5080223  48.9849901
  26.1786914  31.4889622  49.6220112  26.8767428  30.6149793  47.6699448
  27.0586014  29.7529984  47.1759605  26.7115283  31.9283032  46.9260073
  26.7593884  32.7254152  47.6679134  27.8652716  32.1373582  45.9351206
  27.6550007  32.9911780  45.2910089  28.7846375  32.3415256  46.4839220
  28.1974626  30.9551024  44.9863768  29.0678358  29.9258900  45.1729488
  29.7709227  29.8404050  45.9882784  28.9224958  29.0266824  44.1807556
  29.5246553  28.2158470  44.1878605  27.9671788  29.3980908  43.2491541
  27.5447655  28.7877393  42.0235538  27.8262115  27.7921128  41.7138529
  26.6647696  29.5728397  41.2689877  26.4100409  29.1778731  40.2966118
  26.2514496  30.8566570  41.6250610  25.7151747  31.4562130  40.9044075
  26.6416264  31.3404155  42.8768206  26.4657044  32.3675585  43.1604147
  27.5427961  30.6550860  43.7091875  25.3359437  32.0245123  46.1950684
  24.8399282  31.0067749  45.7112074  24.8603153  33.2676435  45.9342098
  25.2893758  34.0734482  46.3662863  23.6184406  33.5842919  45.1352692
  23.3044004  32.8020287  44.4442225  22.3956418  33.8457751  46.0620832
  22.5375986  34.6677303  46.7637539  21.0534430  33.9431238  45.3784895
  20.9047985  32.9624796  44.9264526  20.2945876  34.0988374  46.1452961
  21.0062432  34.7081590  44.6035099  22.2159529  32.6553917  46.9165850
  22.9283023  32.7105999  47.5577641  23.9412189  34.8203897  44.3699265
  24.2698741  35.7577157  45.0248241  24.0721464  34.8615456  43.0422306
  23.8096952  34.0085125  42.5694180  24.3593740  35.9873343  42.1925116
  25.3987217  36.2740564  42.3526573  24.1792464  35.5383635  40.6919050
  23.2066846  35.0692010  40.5432081  24.1589046  36.8114042  39.8982072
  24.5432305  36.6059852  38.8991070  23.1675506  37.2546482  39.8041010
  24.8114944  37.5122833  40.4187870  25.3434610  34.6149564  40.2163649
  25.1654243  34.2908406  39.1910100  26.2579727  35.2079248  40.2036619
  25.3833127  33.7365127  40.8604527  23.4097409  37.1147180  42.5048637
  22.1671629  36.9445109  42.4573326  23.9788675  38.3295751  42.6715994
  24.9629354  38.3623171  42.4465656  23.4061766  39.5663691  43.1336594
  22.3413086  39.4812870  43.3502579  24.0936542  39.8736715  44.4322538
  23.5634494  40.7110453  44.8858976  24.0748882  39.0421152  45.1367092
  25.1036644  40.1992607  44.1833067  23.6621761  40.6866503  42.0755434
  24.6885681  40.7048607  41.4868498  22.7123260  41.6101122  41.8934917
  21.8136740  41.4334917  42.3193216  22.7528453  42.5642824  40.7811737
  23.8042426  42.8055143  40.6247568  22.2750545  41.8990135  39.4207072
  22.6189256  42.5311136  38.6019921  22.6613092  40.8800459  39.3958831
  20.7368135  41.8524122  39.2748785  20.2156591  41.4939547  40.1625776
  20.3766370  42.8419590  38.9934993  20.2346253  40.9710693  38.1493235
  20.8177924  40.9924841  37.0590878  19.1018248  40.3926706  38.2536387
  18.7527299  39.7960472  37.5172472  18.6220598  40.3636122  39.1419435
  22.0995665  43.8453865  40.9576750  21.1134291  43.8615847  41.7268085
  22.4668956  44.9431276  40.2817726  23.2930446  44.9128342  39.7015476
  21.8754601  46.2577963  40.5450249  22.2057748  46.5166330  41.5510082
  22.5143147  47.2595549  39.6270299  22.2342944  47.0251799  38.6000180
  23.5967875  47.1548700  39.7004867  22.2436357  49.0573978  39.7866940
  20.3651237  46.3439274  40.3520966  19.8297107  46.0006857  39.2580986
  19.6707880  47.0072937  41.2938595  20.2327180  47.2386837  42.1005821
  18.2350659  47.2639036  41.3201189  17.7007866  46.3281775  41.1555910
  17.8654993  47.8518438  42.7682781  18.0490136  47.0020580  43.4257603
  18.4375668  48.7372398  43.0456209  16.3502586  48.2545137  43.0188084
  16.0294628  49.1283560  42.4517298  15.7490122  47.5214672  42.4809933
  15.8306670  48.3681393  44.4650745  16.1587369  47.5637579  45.1234388
  16.1676788  49.3241739  44.8657227  14.3133068  48.4693050  44.5609999
  14.0414083  48.7999249  45.5634260  13.9815056  49.1834545  43.8073492
  13.5513389  47.2334385  44.2138863  12.5447333  47.3035383  44.1699409
  13.8199162  46.7453432  43.3714342  13.6928260  46.5693283  44.9615717
  17.8037417  48.1913376  40.1531458  16.5942156  48.1575441  39.8471117
  18.6934626  49.0077162  39.5806861  19.6283329  48.9380884  39.9565458
  18.4975874  49.9110270  38.4031844  17.4299371  50.1195908  38.3344603
  19.3295407  51.2030745  38.5117221  20.3389359  50.8406687  38.7063622
  19.5321751  52.1169853  37.2901416  20.1075101  53.0330706  37.4238515
  19.9630702  51.5824795  36.4435410  18.5306942  52.3597479  36.9348955
  18.8570321  52.0945740  39.6496582  19.0114319  51.5642214  40.5893326
  19.4346464  53.0189466  39.6498609  17.3565197  52.5626278  39.6361756
  17.1961629  53.1958818  40.5087471  17.1035993  53.1697941  38.7669921
  16.6075802  51.7717552  39.6775794  18.7524056  49.1875172  37.0818138
  17.9576182  49.1967678  36.1922240  20.0402713  48.7745094  36.8244243
  20.6333542  48.6527729  37.6328373  20.6461382  48.5682631  35.5157542
  20.0088692  48.9718866  34.7289324  21.8748879  49.5297384  35.5582500
  21.5926361  50.3465271  36.2225461  21.9819474  49.9886990  34.5754004
  23.3911109  48.7553978  36.1429596  20.9090972  47.0947981  35.1409292
  21.2252927  46.7172337  33.9627862  20.8643985  46.2289715  36.1827922
  20.4267168  46.6016865  37.0132256  21.0303998  44.8382187  36.2529588
  20.6887603  44.6359158  37.2680759  20.0963426  44.1448450  35.2187228
  19.0981972  44.5713234  35.3183436  20.6076288  44.3028498  34.2691350
  20.0281763  43.0673552  35.3686810  22.4849272  44.3688869  36.1090755
  22.6493263  43.1306744  35.9742951  23.4830761  45.2541256  36.2742591
  23.3240867  46.2349892  36.4551878  24.8649859  44.7923517  36.4332056
  25.1933742  44.3300104  35.5023479  25.6784773  46.0642338  36.7400742
  25.6343961  46.7177153  35.8687997  25.2910542  46.6075945  37.6019096
  26.9729781  45.6170034  37.0197248  27.5036407  46.3501644  37.3398399
  25.0049520  43.7937355  37.6029730  24.7062421  44.0314722  38.7395859
  25.5748343  42.6227951  37.2282267  26.0455155  42.5687551  36.3362408
  25.9417534  41.6398525  38.2694626  25.1420593  41.5931368  39.0086579
  26.1202168  40.2316284  37.6343536  26.8374491  40.3348970  36.8200970
  26.4855886  39.6387839  38.4728861  24.9276114  39.5558548  36.9715095
  24.9864554  38.2192349  36.6541481  23.7628245  37.8747821  36.1559129
  23.3849621  36.9313979  35.7903361  22.9530334  38.9626765  36.2556219
  22.0398259  38.9716506  35.8242583  23.7431121  40.0545406  36.6024899
  23.4511852  41.0789204  36.7808628  27.2051215  42.1976376  39.0406227
  28.3264256  41.8829775  38.7191677  26.8908572  42.9297733  40.1085234
  25.8971047  43.0457497  40.2467394  27.8138804  43.5481024  41.0787392
  28.5904646  44.0729666  40.5223799  27.0798135  44.5627737  41.9290257
  26.1729622  44.0521765  42.2530890  27.8448081  44.7638988  43.2409096
  28.7978554  45.2489233  43.0298328  27.2319794  45.4579544  43.8160849
  27.9869509  43.8132906  43.7549639  26.8174314  45.8996058  41.1836767
  27.7467942  46.4456034  41.0215950  26.4029002  45.6632900  40.2036667
  25.8079147  46.8528175  41.8542814  24.8907995  46.3550282  42.1692514
  26.2666750  47.1598911  42.7941465  25.6097865  47.7713680  41.3019133
  28.5321569  42.3688841  41.8526983  29.7421432  42.4408340  42.0222425
  27.8776360  41.2908697  42.2459841  26.8816042  41.1883402  42.1136570
  28.4524536  40.3083897  43.1939983  29.4186997  39.9487281  42.8402758
  28.5378194  40.8004427  44.1628599  27.6267862  39.1115904  43.4261894
  26.8645835  38.6810780  42.5233603  27.7915454  38.5428762  44.6106958
  28.5775042  38.9065313  45.1304388  27.0901823  37.4031401  45.1575184
  26.2400103  37.2523165  44.4922686  28.0417418  36.1690950  45.1329088
  28.9611483  36.4475608  45.6479311  27.5636744  35.3603983  45.6856823
  28.3021832  35.7604837  43.7625313  27.6169109  34.9430346  42.9249334
  26.6701078  34.5199227  43.2265043  28.2889175  34.7977948  41.7143440
  28.1627488  34.0221000  41.0799313  29.3823266  35.6216502  41.6312313
  30.3522468  35.7376170  40.6916237  30.3723407  35.1264191  39.8014355
  31.3852549  36.6386986  41.0205412  32.2082424  36.7454267  40.3293848
  31.3692904  37.3791409  42.1587420  32.1547914  38.0758691  42.4116421
  30.3164959  37.3559761  43.0433035  30.3321218  37.9877567  43.9190960
  29.3395543  36.3099241  42.9039907  26.8034339  37.6288438  46.6512680
  27.7350640  37.8690553  47.3991537  25.6378937  37.2058463  47.1425438
  24.8920846  36.7756867  46.6144991  25.5768561  37.0500422  48.6090994
  26.1391830  37.8696322  49.0564919  24.1584301  37.2012901  49.1865826
  23.6613154  38.0253839  48.6748743  23.5954213  36.2974572  48.9537525
  24.0197158  37.4777794  50.6918383  24.4279528  36.6382527  51.2545395
  24.5959306  38.3917141  50.8360672  22.5654387  37.7293205  51.0564280
  22.2463894  38.4704471  50.3235960  21.9391108  36.8395424  50.9923315
  22.4644065  38.3575821  52.4172068  22.7062869  37.5857854  53.1479073
  23.1984997  39.1353440  52.6276731  21.0851860  38.8620329  52.6255798
  20.4447031  38.0810833  52.6251984  20.9974909  39.3369246  53.5126448
  20.7447314  39.4238973  51.8584394  26.1434007  35.7107615  49.0440464
  26.2094855  34.7512054  48.2839775  26.6923022  35.7298636  50.2618456
  26.5199733  36.5618825  50.8078718  27.2237372  34.4929695  50.8430910
  26.9705105  33.5860991  50.2939415  28.7640429  34.6974969  50.9625721
  29.0289545  35.6800818  51.3530159  29.1597676  33.9217234  51.6180658
  29.5787764  34.5095849  49.6307468  29.8300099  35.6355977  48.8007879
  29.3525338  36.5715146  49.0507364  30.6281757  35.4942369  47.6687288
  30.8247280  36.3650346  47.0608807  31.0725546  34.1837072  47.3531151
  31.7355895  34.0793681  46.5070057  30.7172155  33.0379319  48.1087637
  30.9898710  32.0498443  47.7685499  30.0255752  33.1908488  49.3038940
  29.7625470  32.3356605  49.9087667  26.6282606  34.2342377  52.1907902
  26.7536330  35.0326967  53.1127071  26.0523462  33.0199599  52.3139668
  26.0928345  32.4508834  51.4805365  25.2669954  32.4497581  53.4198666
  25.2975869  33.1369686  54.2653894  23.8107944  32.3624492  52.9205751
  23.1937480  31.8959522  53.6885214  23.0980301  33.7043285  52.7039003
  23.2160783  34.3728328  53.5566998  23.4366465  34.1446209  51.7660427
  22.0286417  33.5113907  52.6185751  23.6660743  31.5908194  51.8108130
  23.5845256  30.6511497  51.9896078  25.7546973  31.0693955  53.8276863
  26.2153482  30.3074503  52.9945898  25.6048059  30.8251810  55.0728512
  25.0235009  31.4573073  55.6044579  26.1923599  29.6484160  55.6496668
  27.2358894  29.6671724  55.3353500  26.1726260  29.6791005  57.1479464
  25.1363039  29.6442461  57.4839926  26.7472124  28.8571692  57.5750017
  26.5818453  30.6010294  57.5610971  25.5427074  28.3528280  55.1633501
  24.4033504  28.3774018  54.7158384  26.2192392  27.2324419  55.3536987
  27.1816301  27.3334837  55.6430006  25.5803561  25.8897018  55.0977612
  24.5627046  26.0328174  54.7344398  26.3093328  25.0784850  54.0181589
  25.7987213  24.1155028  54.0247917  26.1135769  25.7455158  52.5933456
  25.2427697  26.3991380  52.5426388  27.0334411  26.1661959  52.1871758
  25.7992268  24.9857354  51.8777895  27.6399565  24.9873734  54.3452549
  27.9725885  25.8341885  54.0388870  25.4065728  24.9732161  56.3359022
  24.8382235  23.8865137  56.3167334  25.8406830  25.5623698  57.5008583
  26.1641812  26.5098143  57.3674297  25.6083703  25.1180959  58.9154959
  24.6091604  24.6876216  58.8493776  26.6062093  24.0797615  59.2616796
  26.2875700  23.5699987  60.1709175  26.4736915  23.3194900  58.4919214
  28.0503774  24.7143984  59.2695379  28.5390258  24.6823978  58.2957315
  28.1021690  25.7071376  59.7166204  28.7993217  23.7828326  60.2464008
  28.4228659  23.8526320  61.2669420  28.7312818  22.7503800  59.9035835
  30.2629113  24.2441511  60.1660824  30.5945301  24.0383053  59.1483688
  30.3805256  25.2922297  60.4413986  31.2672567  23.3771491  60.9621906
  31.1520362  22.4131083  60.6838846  32.1893764  23.7334037  60.7551241
  31.1647797  23.5385537  61.9539309  25.3970766  26.3366508  59.8609924
  25.7313299  27.4278331  59.4821692  24.9418449  26.0862350  61.0729790
  24.7403431  25.1115847  61.2449026  24.6448493  27.1030760  62.1484852
  24.2788410  28.0205488  61.6876364  23.4667921  26.6398382  63.0687332
  23.7303948  25.6171560  63.3384275  23.3763814  27.3909950  63.8533926
  22.0880008  26.5469861  62.3970747  22.1838307  25.9211206  61.5098238
  21.4548492  26.1493349  63.1902313  21.5568209  27.9045987  61.9656563
  21.3110566  28.5132027  62.8358889  22.1679878  28.2775831  61.1437941
  20.1830196  27.6110935  61.3302040  20.3134036  26.9434118  60.4785585
  19.6182883  27.0567894  62.0798254  19.3953037  28.8187647  60.8547068
  18.5606074  28.5678434  60.3443909  18.9546072  29.3610358  61.5839720
  19.9509192  29.2907214  60.1556683  25.8634663  27.5383258  62.9188919
  25.8504701  28.6671925  63.4615517  26.8409824  26.7153931  63.0802584
  26.8647838  25.7769752  62.7075481  27.9794550  27.0020795  63.9835501
  27.6727843  27.7689862  64.6948242  28.3193135  25.8129644  64.7867680
  27.4194241  25.4129958  65.2540207  28.5811210  24.9890924  64.1228437
  29.4704151  25.9210753  65.7903099  30.3101206  24.9346709  65.8857584
  29.5760560  26.9931149  66.4062262  29.2142677  27.4623775  63.1552029
  30.2286720  26.8080902  63.0128336  29.0114665  28.7119508  62.6391411
  28.0627799  29.0561414  62.5988245  29.8698115  29.6548390  61.9536161
  30.8095050  29.7713876  62.4935198  30.2545309  29.0510869  60.5656481
  31.1906910  29.4352722  60.1605511  30.7031703  28.0804062  60.7768440
  29.0543222  28.8346648  59.6271992  28.4100842  28.0432487  60.0102329
  28.4975481  29.7705913  59.5808411  29.4081807  28.3136225  57.8839254
  30.1537013  29.8007131  57.1604586  30.3655791  29.6531510  56.1014795
  29.4272614  30.6106281  57.0939589  31.0296845  30.1462173  57.7094460
  29.2946911  31.0996985  61.8057966  28.1556606  31.3752937  61.3124228
  30.0010014  32.0994067  62.3702145  30.9589648  31.9065642  62.6255941
  29.5997334  33.5128665  62.2747564  28.6758661  33.5422683  61.6970825
  29.4737053  33.9629507  63.7278175  28.8039994  33.3439565  64.3248415
  30.4656720  33.8835573  64.1725731  29.0612507  35.3127909  63.9203691
  28.1565809  35.4714441  63.6410809  30.6431699  34.3379498  61.4628983
  31.8095827  33.8959098  61.4637947  30.2916574  35.5073857  60.8967543
  31.2890196  36.4649892  60.3942299  32.0947003  35.9923935  59.8324203
  31.7234302  36.9236946  61.2824774  30.4737425  37.4251676  59.5290899
  30.4188395  36.9929242  58.5299635  30.8659601  38.4410977  59.5754671
  29.0637088  37.3548794  60.1042557  28.3843255  37.7205753  59.3343163
  29.0014982  38.0233788  60.9629440  28.9126062  35.9133124  60.5595303
  28.3587933  36.0394311  61.4898491  28.1253314  35.0091195  59.6548223
  28.7618232  34.4479680  58.7443399  26.9278502  34.6159482  60.0316763
  26.7261744  34.8659325  60.9892464  26.0636997  33.6885929  59.2912769
  26.6099286  32.7458382  59.2604399  24.7520924  33.4746575  60.0360346
  24.3860459  34.4539285  60.3444815  24.0524936  33.0785966  59.2999649
  24.8969102  32.5019717  61.2442255  25.8903790  32.5244689  61.6921234
  24.1389680  32.8172874  61.9613075  24.6743870  31.0055423  60.8572769
  23.5719895  30.5668283  60.6246710  25.7047629  30.2493739  60.6576633
  25.5069375  29.3179297  60.3209496  26.6195560  30.6522751  60.8023071
  25.7600522  34.1144681  57.8266716  25.2735233  33.2559395  57.0885134
  25.9821987  35.3841519  57.4844408  26.2157488  36.0044861  58.2465076
  25.9656310  35.8191395  56.0533047  26.4936185  35.1225305  55.4021025
  24.5261073  35.7879472  55.4015255  24.5786452  36.2565970  54.4188213
  24.2236567  34.7414207  55.3640413  23.5135245  36.6779661  56.2304544
  23.5525012  36.1914515  57.2050762  23.9240432  37.6866412  56.2768412
  22.1332073  36.7096519  55.7182598  22.0716166  37.0639586  54.6892929
  21.7100954  35.7149267  55.8582735  21.3781071  37.6065230  56.6949463
  21.6133761  37.2117734  57.6833439  21.7624831  38.6256838  56.7358160
  19.9416149  37.5164580  56.4294386  19.3273997  37.9423451  57.1087503
  19.6376419  37.9620218  55.5755234  19.6240008  36.5614009  56.5136290
  26.6676998  37.1630692  55.8177328  26.7372918  38.0329156  56.7461014
  27.2076297  37.4231696  54.5917797  27.0976233  36.7063904  53.8887691
  28.0036759  38.6059928  54.1716862  27.6212001  39.4908571  54.6804380
  29.4993353  38.4680557  54.5738125  29.9016309  39.4750357  54.4631386
  29.5067096  38.1295085  55.6098795  30.2588487  37.5745511  53.6192417
  30.4293203  36.1949754  53.8359976  29.7694421  35.5933475  54.4434547
  31.4220238  35.5002666  53.0147409  31.4994574  34.4237161  52.9766893
  32.1235180  36.1467886  52.0126963  32.7304077  35.4994988  51.3969803
  32.0119524  37.5365806  51.8009186  32.6292968  38.0712533  51.0942221
  31.0705471  38.1968284  52.5914621  30.9420490  39.2463183  52.3713255
  27.7741432  38.8069749  52.6026249  27.2357082  37.9200959  51.9786215
  28.1108975  39.9345064  51.9808054  28.5154676  40.6529045  52.5641823
  28.2290506  40.0540829  50.5115747  27.7428007  39.2617822  49.9424314
  27.6027060  41.4176989  50.0716162  28.1903076  42.2711897  50.4098225
  27.5557709  41.3808489  48.9832497  26.1245584  41.7282772  50.4985571
  25.7553411  42.2654724  51.7032766  26.3898110  42.5960875  52.5123167
  24.3903184  42.3299170  51.6931629  23.8444829  42.7089643  52.4537468
  23.8926339  41.9608784  50.4876995  22.5738096  41.8701458  49.9589205
  21.8137169  42.4307299  50.4827595  22.3138809  41.3277674  48.7552023
  21.3408971  41.4171505  48.2950735  23.3259320  40.6270552  48.0827618
  23.1181669  40.2085638  47.1090603  24.6240520  40.5848360  48.5733652
  25.3845239  40.0053740  48.0710506  24.9171400  41.3735151  49.7787523
  29.6938658  40.0659657  50.0006771  30.5719352  40.8249617  50.4932165
  29.8777747  39.2770314  48.9385700  29.1340947  38.6695957  48.6254168
  31.1270499  39.2789984  48.0837536  32.0778131  39.5604658  48.5364342
  31.3156867  38.2439876  47.7986765  30.9036851  40.0771952  46.8033123
  30.1699638  39.6194625  45.9115839  31.3837504  41.3031340  46.8857002
  31.9631267  41.4948130  47.6904869  31.1902404  42.3383236  45.9092760
  30.4233217  42.0520735  45.1895571  30.7334995  43.6325359  46.5696669
  31.5770674  44.0379477  47.1283579  30.4671121  44.2941189  45.7453823
  29.4290543  43.6269331  47.4818563  29.5908260  43.1524563  48.4497452
  29.1429949  45.1312113  47.7310419  28.7428236  45.6293344  46.8479586
  28.2786584  45.2544880  48.3835983  29.9113417  45.7065725  48.2474804
  28.1491923  43.0483389  46.8647242  28.3651066  42.0565033  46.4675570
  27.3540735  43.0903244  47.6091146  27.7958655  43.6510038  46.0280275
  32.3891568  42.5031853  45.0219393  33.5266304  42.6003265  45.4626942
  32.1313787  42.6510859  43.6860704  31.2539124  42.8814602  43.2421303
  33.2993674  42.7991867  42.7892637  34.1699409  42.2257185  43.1076050
  32.9322839  42.2542429  41.3762808  32.0765400  42.7737856  40.9451437
  34.0562677  42.2951412  40.4264355  35.0158143  42.0479393  40.8805943
  33.8229227  41.6164732  39.6060300  34.0155840  43.3077383  40.0250769
  32.4719286  40.8462858  41.5650988  31.6056609  40.9449100  41.9669151
  33.7230325  44.2264843  42.9222012  32.8668642  45.0440216  42.5567055
  34.9510193  44.4983912  43.3854151  35.6038141  43.7524986  43.5793591
  35.5058050  45.8380175  43.3621883  34.8936558  46.4796448  43.9959764
  36.9097710  45.7375240  43.8817120  36.9667816  44.9919176  44.6747541
  37.5411630  45.2217245  43.1582499  37.4209213  47.1365023  44.2818880
  36.9313145  47.8723526  43.6439896  37.1901774  47.2272587  45.3433180
  38.9317417  47.3791313  44.0282106  39.1311479  48.4416533  44.1674566
  39.5899057  46.8056345  44.6809196  39.3088794  47.0169163  42.6758242
  39.7820091  46.1480999  42.4723291  39.1469932  47.7105570  41.5673161
  38.7377548  48.9358521  41.6072607  38.8872743  49.4614744  42.4566555
  38.3454514  49.4070339  40.8046436  39.3456507  47.0859003  40.4439735
  39.4675493  46.0877562  40.5385876  39.1377354  47.5954819  39.5971012
  35.4079700  46.5396023  42.0112371  34.9383926  47.6927805  41.9354820
  35.6451511  45.8631659  40.9078646  35.9482408  44.8997164  40.9085608
  35.5483866  46.3716698  39.5397305  36.1925960  47.2362900  39.3799496
  36.1194468  45.4065943  38.4573102  35.4024982  44.6514511  38.1350636
  36.4225340  45.9044456  37.5362325  37.2227192  44.6325064  38.9588284
  37.9520941  45.1189041  38.5676384  34.1167045  46.8088627  39.1029382
  33.9904714  47.5849485  38.1719923  33.0557919  46.4481449  39.8140597
  33.2197428  45.8235788  40.5906820  31.6497612  46.8960238  39.5747995
  31.5916133  47.3453140  38.5834074  30.6610179  45.7117414  39.6868610
  30.8527637  44.8530579  39.0434361  30.7943797  45.2820158  40.6796646
  29.6234131  45.9411573  39.4442868  31.1504865  48.0352020  40.4769564
  29.9248195  48.3976173  40.4836559  32.0916939  48.6138391  41.2084007
  33.0334067  48.2499743  41.1787367  31.8896985  49.5691109  42.2716522
  30.9044933  50.0195217  42.1508026  32.0032907  48.8978577  43.6817408
  33.0117059  48.5437679  43.8958025  31.8619657  49.6869946  44.4202471
  31.0676789  47.7247906  44.0062237  31.1638451  46.8918657  43.3097363
  31.4979029  47.2532082  45.4242134  30.7657695  46.5281487  45.7796907
  32.4464917  46.7299891  45.3037071  31.6388440  48.0236053  46.1823177
  29.6231532  48.1237698  43.9249754  29.3667936  48.0185461  42.8707886
  29.0792799  47.4286461  44.5645857  29.4910622  49.1619015  44.2298460
  32.8062224  50.7867813  42.1507406  33.9138508  50.6762123  41.6124964
  32.2823644  51.9430161  42.5625420  31.2886477  51.9946527  42.7356482
  33.0562568  53.1855202  42.6809645  34.0842366  52.8451920  42.5563240
  32.7658248  54.1337395  41.4569664  33.2637405  53.5832977  40.6587219
  31.2602067  54.3691397  41.1867189  30.8976221  53.4893799  40.6550741
  30.7669854  54.6359015  42.1214247  31.0423064  55.2661705  40.6070900
  33.5626125  55.5480146  41.6567421  32.9883885  56.2939787  42.2062016
  34.4421363  55.3063869  42.2535276  34.0705538  56.2260199  40.4091930
  34.3876338  57.2326612  40.6816673  34.9241710  55.6706810  40.0205564
  33.1774378  56.2927961  39.7879171  32.8514624  53.8916731  43.9740753
  31.7323375  54.1880560  44.3689585  33.9346886  53.9437819  44.8283482
  35.2185774  53.2638454  44.6387863  35.7852030  53.7772608  43.8619757
  35.1554370  52.2727346  44.1895485  35.9548187  53.3475351  46.0120153
  37.0297885  53.4951401  45.9083223  35.7230282  52.4656105  46.6091585
  35.3927994  54.7038126  46.5388680  35.8886242  55.5520439  46.0668898
  35.3802943  54.7238731  47.6286125  33.9537287  54.6941948  46.0656500
  33.1972408  54.2666054  46.7236710  33.5004187  56.1872101  45.8808899
  34.0923142  56.9526434  45.1121616  32.5196481  56.6285229  46.7286634
  32.1400380  55.9896278  47.4126291  31.7458129  57.8723335  46.5049839
  32.2749519  58.6056995  45.8964729  30.4091454  57.5221252  45.8375788
  29.9562287  56.8104744  46.5278816  29.4575667  58.7847137  45.7565880
  29.8122811  59.6107388  45.1401806  28.5142684  58.4613085  45.3164721
  29.2254877  59.2491293  46.7150021  30.6044006  56.9309521  44.5112848
  31.1241841  56.1257267  44.5664072  31.3869381  58.5710526  47.8175211
  30.9301615  57.9740715  48.8349676  31.4717531  59.8144674  47.8530502
  23.6542821  49.9540281  38.1090379  31.7786574  31.7351413  41.6459513
  30.6516242  32.1567583  42.6177359  31.2460399  32.5362921  44.0727043
  32.2228336  31.5043402  44.6551371  32.7717805  30.6914234  43.6838961
  32.7661848  30.7467914  42.3455715  30.4161668  31.1652136  38.2884073
  30.1627922  29.8975062  38.8270807  30.6554794  29.8597479  40.3123283
  31.2368727  31.2530756  40.3987694  31.1282539  32.0332813  39.2266536
  29.2678452  30.5354929  36.2320089  29.1468382  29.2404509  36.7404628
  29.4291711  28.9285254  38.0552363  29.9594545  31.5122795  37.0160627
  31.6726565  33.0966520  39.0118265  29.1843605  27.7205110  38.5651827
  33.6737037  30.2116656  41.7393970  32.4761534  31.4313531  45.8130598
  32.3914886  32.5874400  41.3226700  33.3290386  29.9306750  44.0544367
  28.8717103  30.6323099  35.2254796  28.6486268  28.6294746  35.9935427
  30.0815749  32.5278902  36.6513443  31.4062929  29.0720987  40.4528189
  29.7976089  29.7777438  40.9914303  28.6789751  27.7569294  39.4405103
  28.7543631  27.0010519  37.9991364  29.9120927  31.3524890  42.7255678
  30.1413441  33.0807710  42.3157454  30.4497170  32.7509403  44.7973967
  31.8114996  33.4531927  43.8607264  56.5981770  21.1567473  48.5718536
  68.3391905  45.1707840  32.1641779  42.3375893  50.4862261  20.6823039
  66.0774088  52.7044010  34.3229485  24.4285154  60.6104660  36.3175607
  30.5946159  44.1846561  19.0387487  65.1823807  32.5860143  32.2536802
  66.2459326  46.4553738  47.3631001  79.5742273  53.6037827  21.3203573
  79.6769714  54.0421009  22.1650791  80.4305744  53.2124472  21.1478591
  61.6309452  62.9509544  18.8054252  61.2124920  63.1856298  19.6337104
  61.2596607  62.0972061  18.5829520  50.0691366  76.8406010  27.9331636
  49.9650240  76.5199232  27.0373058  49.2223024  76.6740227  28.3471179
  18.9878333  13.4971631  10.0449741  19.2077911  13.3763349   9.1212589
  18.9181840  12.6081491  10.3928733  57.3714256  50.2066374  12.9969811
  57.6742363  49.3051529  12.8880930  56.8234348  50.3696108  12.2292733
  15.8418047  49.0764523  57.8869438  16.4525068  49.8099375  57.9595423
  16.0463846  48.5192299  58.6378622  76.5346622  62.0918703  28.0950069
  76.1370087  61.5150928  28.7472558  76.5418863  61.5740395  27.2900033
  32.5057006   4.9401832   5.8324975  33.1393242   4.6478727   5.1772803
  32.9866886   5.5738044   6.3648570  74.7119141  43.4868383   2.2123052
  74.8260069  43.5520458   1.2641689  74.8891068  42.5676680   2.4122131
  71.7862511  65.1787186  48.2596397  70.9480572  64.7897625  48.0098867
  72.4368811  64.5173836  48.0239487  44.4930315  14.8011756  61.7346144
  44.0693235  15.6543326  61.8285608  44.1946125  14.4778585  60.8845329
  75.6052637  74.9144363  29.8141456  75.7356977  75.1201391  28.8884544
  76.4788675  74.9809217  30.1996756  53.9072704  22.0036554  57.2762108
  53.5702133  22.3761487  56.4614248  53.1314230  21.6674948  57.7248573
   3.2126611  66.5184402  37.8560877   2.7522802  66.5538120  37.0176172
   2.6978332  67.0797205  38.4358692  72.8753662  64.5524502   8.9931327
  73.5725260  65.2075481   9.0255964  72.6448679  64.4937325   8.0659574
  74.9802017  66.2641048  21.1023998  74.6383190  66.9304895  20.5063486
  74.6785688  65.4344130  20.7324529  44.3222666   7.7626127  61.2056303
  44.4895887   7.0404661  61.8112230  43.3717966   7.7648681  61.0923529
  70.3691244  69.2834616  17.5588262  70.9805107  69.7252083  16.9695044
  70.3763771  69.8157358  18.3543563   3.6419666  76.0465670   9.3400443
   3.6459225  76.9414949   9.6796417   2.7935982  75.6927872   9.6071392
  30.8270192   0.3752039  32.3201537  31.7701364   0.4344853  32.4726224
  30.7360625  -0.2897542  31.6376662  36.0299277  11.0206378   5.4444909
  36.0961795  10.2675617   6.0316181  35.1943398  11.4286172   5.6715912
  75.4633331  46.6586971  16.8032026  75.0152302  45.8169603  16.8863845
  76.3628960  46.4291430  16.5701258   1.2653375  67.1656752  25.3284931
   2.2031283  67.0909166  25.5051041   0.9861813  66.2709856  25.1339817
   2.9594392  55.4245090  19.9060893   2.1821614  55.0796223  20.3455496
   3.5460997  55.6759977  20.6194019  75.4002762  54.4696283  21.7350769
  75.9599924  54.5173120  20.9600449  74.5105743  54.5607185  21.3939595
  44.3044567   8.6635160   0.9487885  45.1472187   8.4980750   1.3714097
  44.1511250   9.5994174   1.0784452  35.3304839   0.1955028  10.4310048
  34.7967172   0.2306896   9.6372235  34.7000742   0.0553185  11.1375201
  12.1371329  69.9142265  19.8535931  12.2173917  69.4797230  19.0044785
  11.8181002  70.7920742  19.6442294  23.2177615  59.2308140  22.6850867
  22.4041462  58.7314701  22.6149702  23.0213070  60.0688362  22.2663307
   2.4411993  72.0160055  33.0704737   3.0695614  71.7432880  33.7390685
   2.4734218  71.3205147  32.4136019  16.9936883  76.1504889  13.1725252
  16.1381578  76.1056948  13.5994828  16.9663584  76.9622040  12.6659632
  29.9674773   4.0153724  13.8309097  30.0656796   3.1088319  13.5397518
  29.3549895   3.9661962  14.5648527   8.7761295   4.0972230  24.1404843
   9.6095258   4.5668352  24.1066122   9.0194088   3.1731987  24.0836835
   7.5171232  71.8596649  18.1351614   6.5693557  71.9099426  18.0108976
   7.8331757  71.3741970  17.3731482  67.3766851  66.8963146  43.6999178
  67.7686405  67.4513912  43.0257559  66.6516256  66.4563179  43.2561588
  82.0836258  67.7435255   0.8177459  81.7351341  68.0759525   1.6449559
  81.8629742  68.4188271   0.1762555  33.3397388  26.1500645  12.8152549
  33.9219022  26.4831853  13.4981513  32.8552222  26.9198489  12.5170779
   4.3597779  69.7563505  13.2134390   4.5804885  68.9036417  13.5881531
   3.4214073  69.7027206  13.0322862  19.2163646  71.0129738  22.5092387
  19.3544948  71.8767691  22.8978419  20.0798488  70.7543993  22.1871114
   1.5245593  55.4602098   8.5612911   1.5084785  54.5093107   8.4528232
   2.4172072  55.7130766   8.3257735  10.0756383  57.5455952   5.5854744
  10.0753748  58.0552435   6.3957125  10.5684674  58.0825233   4.9649435
  36.8319345  11.9110274  23.4210229  37.4528718  12.2408664  22.7715039
  36.0458302  12.4417043  23.2919669  59.3159580  73.6040926   2.1252570
  58.6661959  73.2221937   1.5351735  58.7980223  74.0380478   2.8032383
  78.8277864  47.2238874  27.5144148  79.2224836  47.8416443  28.1299043
  78.0121374  47.6446962  27.2426295  80.7697487  73.9767599   1.1879305
  80.7197285  73.6989784   0.2732895  81.2711430  74.7917747   1.1636457
  60.3283942  12.7387085  66.4676699  60.6483889  13.3018913  67.1724117
  60.0162000  11.9512501  66.9133978  48.2157421   4.1191867  57.9957390
  47.7547646   4.6463227  58.6483145  47.5217485   3.6473787  57.5353003
   3.2183874  41.9345284   6.8331420   3.2241488  41.4646244   7.6670402
   2.3867790  42.4085093   6.8310505  75.8321667  54.8048162  24.3226600
  75.7160664  54.6247387  23.3897471  76.7724228  54.9536133  24.4226694
  60.1181221   7.2743839  63.7665415  61.0593891   7.4408168  63.7160778
  59.7146940   8.0820972  63.4486198  41.1338615   5.6546676  57.7991676
  41.7284107   4.9080664  57.7261448  40.5729866   5.5906999  57.0261526
  53.8263226  57.0092773   2.6968828  53.3279562  56.8525219   1.8948305
  54.6726704  56.5911055   2.5385615  56.9021082  19.2219794  56.2240505
  57.2740889  18.9883220  57.0745039  55.9918785  18.9297771  56.2723207
   9.0266681  73.0205345  20.4430628   9.0098894  73.9597654  20.6268907
   8.5017800  72.9225492  19.6486294  63.6005020  48.5487556   6.3086981
  64.4577265  48.8028717   6.6504943  63.1270742  49.3749332   6.2110752
  26.9653535  72.8749800  64.7918940  26.0782719  73.1925058  64.9607038
  26.8715358  71.9244957  64.7286034  26.8248916  19.9641442  51.4596415
  26.8963265  20.8632231  51.1390352  26.8231297  19.4268143  50.6674862
  14.6846771  58.0610609  10.9727287  13.9365327  58.1202507  11.5668726
  15.0218630  58.9554834  10.9223354  42.2665691  67.7142382  62.1152925
  41.7498493  68.3152819  61.5786552  42.9516602  67.3965979  61.5270805
  16.2036836  38.6713266   7.7361059  15.3154564  38.3774066   7.5338757
  16.7473674  38.2779598   7.0535350  27.6474571  64.8234844  61.0670662
  27.0661855  64.5690584  61.7837429  28.4526467  64.3306637  61.2252808
  47.6872206  33.3534670   3.0580655  48.4404278  33.8899016   3.3053386
  47.8104067  33.1836152   2.1241450  68.1418896   5.1443732  52.0108891
  68.2396030   5.8186483  51.3385534  68.9398289   4.6201611  51.9421196
  58.0768251  14.1716015  65.7394314  57.9658604  13.7853646  64.8706722
  58.6961603  13.5913980  66.1821699  78.8133574  62.9146767   0.8296641
  79.3799734  63.5224247   0.3544567  79.3224812  62.6660204   1.6011527
  39.2880130   2.2243953  50.6338835  39.4947553   1.9689356  51.5328979
  38.9947367   1.4146006  50.2162075  68.5649252  37.1978426  56.1628294
  69.5199108  37.2206426  56.1018610  68.2989931  38.1152630  56.1007929
   4.1681021  19.5409894   6.1445540   4.0804425  19.8818529   7.0346999
   3.5465640  18.8141561   6.1041182  51.1621809  55.3363085  11.9897759
  50.5226851  56.0477161  11.9554949  51.2352705  55.1245928  12.9204023
  65.4471540   9.1753602  64.1967535  65.5893993   8.9160228  65.1071072
  64.7189474   9.7954065  64.2353344   1.7760904  58.5545301   7.8253132
   0.9750890  58.0334139   7.8806955   2.3218414  58.0883026   7.1920520
  23.9995885  73.5367155   7.3645169  24.2970657  74.0147400   8.1386167
  23.3372569  72.9308939   7.6969862  71.4045191  70.3262472   8.7819743
  71.7420483  69.7285557   8.1148398  72.0849800  70.9933758   8.8722080
  21.2821937   4.5735466  31.0175896  20.5943513   5.1960558  31.2533593
  20.9792709   4.1805673  30.1990318  22.9320312  69.4901609   6.1392176
  22.1668506  69.8490095   6.5886170  22.5908351  69.1690493   5.3045297
  17.6341224  66.8680000   8.7412375  17.1132910  67.6111364   8.4367430
  17.9688323  66.4656878   7.9397744  10.9719443  47.1212816  18.0672431
  10.5596030  47.8968811  17.6869190  11.5745175  47.4685431  18.7249255
   7.2642767  41.3516474  21.5692616   6.5314758  41.2663031  20.9593844
   7.6967919  42.1657467  21.3115549  79.9467611  57.5289202  10.9803760
  80.3733253  58.0066061  11.6917789  79.2288351  58.0992794  10.7056069
  42.9613113  26.5492034  63.1174612  42.6005316  27.4356461  63.1345797
  42.6529741  26.1810732  62.2894287  59.3713999  22.4545860  63.7328911
  59.5841122  22.6863432  64.6369219  58.6952972  21.7815113  63.8109207
  72.7224159  49.0606594  24.3299294  72.8336811  49.9377918  23.9631939
  73.0050659  49.1442013  25.2406240  46.0923624  72.9464960  50.8893061
  45.5976343  73.0085135  51.7063951  46.5144539  73.8008928  50.7994413
  66.0158491  68.4184837  21.8537951  66.7057419  68.8769484  22.3334646
  66.0972404  68.7366247  20.9546876   5.3504282  60.9203196   4.2507058
   6.0374427  60.2950001   4.4813883   5.0961804  60.6790304   3.3599928
  74.4945145  57.4378204  10.7366860  75.0038481  56.7780781  10.2659905
  73.6551809  57.0123291  10.9119058  67.4289179  12.1234918  64.1613245
  66.8557501  11.9899464  63.4064198  67.8284597  12.9800785  64.0101290
  44.6440172   3.9265993   4.3432167  45.5547857   4.2146942   4.2821139
  44.6380234   3.3039600   5.0702077  19.5162058  69.0885925  11.7462349
  20.1829171  69.4827509  12.3087025  19.0038872  69.8309088  11.4257169
  22.5677347   7.9195726   6.6625375  22.3019552   8.0983764   5.7605267
  23.4101629   8.3642018   6.7566192  12.2697163  38.4134483  25.1902199
  12.2927499  37.4715996  25.0210428  12.6460183  38.8074350  24.4031978
  28.6868215   1.2279765  33.5358810  28.1992745   0.4695401  33.2144713
  29.5263982   1.1844981  33.0782223  47.4677944  41.4756727  12.2095013
  47.9599857  42.0344114  11.6080117  48.1149244  41.1890459  12.8539395
   0.6718117  42.5415707  22.2817755   0.6082420  41.6379547  21.9724679
  -0.0094833  42.6144171  22.9501796  27.0507288  18.7765455  65.5556917
  27.3105431  19.6944606  65.6341743  27.8376579  18.2840908  65.7890558
  52.4890995  56.3412809   0.5195205  51.5978384  56.6885090   0.4832970
  52.9021788  56.6574860  -0.2839794   9.7042596  76.7001486  20.1022840
   9.8172241  76.8086386  19.1579866   9.7540843  77.5893164  20.4531837
  33.4633851  21.0266280  61.5413427  34.1539645  20.3674984  61.4715147
  33.1423354  20.9429622  62.4392080  61.8934345  43.8177299  22.0198202
  61.6572762  43.2118750  21.3173985  62.1797466  43.2526064  22.7373815
  16.2042332  48.2685328   5.6940204  16.1851490  47.3556423   5.4068029
  17.1318972  48.4546518   5.8390409  68.7661839  64.3650532   3.0429167
  67.9531431  64.0848446   2.6225874  68.4832716  64.9509144   3.7450272
   8.9522415  64.2261505   9.1946810   9.2494005  65.0974417   8.9324158
   8.3286196  64.3887472   9.9024165  77.9254293  70.3268909   1.3261437
  78.2196808  70.4502726   2.2285990  77.8069258  71.2150049   0.9893243
  23.3859849   5.5878592  18.0181277  23.2690811   4.7144517  18.3919251
  22.5168347   5.8298194  17.6983368  42.0736980  51.6022587  15.8762598
  42.2655535  50.7199192  15.5586052  42.0684147  52.1448326  15.0877059
  -0.0798712  40.5399036  56.9668055   0.8721219  40.5649710  57.0633078
  -0.2801968  39.6176577  56.8069077  75.1550007  34.4483113   7.4117959
  74.4502020  34.9947691   7.7594656  74.8452234  33.5510087   7.5347495
  21.6114497  68.1223345   4.3504256  21.4323688  67.2620153   3.9709362
  20.9842777  68.2023621   5.0690925   9.5212466  43.4829521  14.4522607
  10.1695788  44.1646957  14.2758536   8.7275326  43.7876892  14.0125048
  72.2811222  68.5100698   6.8482906  71.7596245  68.3256531   6.0670978
  72.7225780  67.6831961   7.0422655   3.6287391  61.4750385  30.8773160
   3.3187175  60.6936073  31.3350058   4.4993529  61.6360807  31.2410855
  15.6312251  69.8225260  27.7339435  16.5015996  70.2124262  27.6523352
  15.6029224  69.4851017  28.6292505   9.2531186  50.0172043   8.6677808
   8.7632823  49.1948700   8.6600453   9.3464673  50.2490854   7.7437949
  72.0125103  25.0065303  10.6352055  71.8534374  25.0538397  11.5779078
  71.5961981  24.1887856  10.3627980  27.4731493  76.2205839  56.0320950
  27.1372700  77.0718527  55.7514477  28.0379128  76.4202404  56.7786932
  80.7812881  61.1442852   5.2090627  80.5386353  60.2195454   5.1620257
  81.3432121  61.2054586   5.9815454   9.9090320   5.8832008  18.8638294
   9.7853047   5.1242954  18.2937539   9.1506922   6.4404321  18.6887693
  65.1717710  71.1906767  14.7437108  65.4676056  70.2995539  14.5576584
  64.2561913  71.0896587  15.0039816  16.6716456  12.0749223  17.7922094
  17.3988914  11.4720857  17.9469061  16.9348311  12.8848636  18.2292008
  77.2330284  49.8279285   4.4770002  76.7113447  50.3746223   5.0645393
  76.7903757  48.9792490   4.4834429  15.4232669  45.8341932   0.2993372
  15.3116119  45.0315380  -0.2100834  14.9385691  45.6734180   1.1089365
  61.5687609  36.8365383   2.9439828  61.5541077  37.0769048   3.8703954
  62.4980736  36.8215299   2.7151021  79.9539423  57.3556042  29.2058420
  79.5869589  58.2301521  29.3351746  79.2125034  56.8255901  28.9133000
  62.5017691  64.4777727  12.5911105  63.0654001  65.1261091  12.1689534
  62.9800367  64.2219257  13.3798015  11.5168774  69.6850443   6.1356795
  10.5901623  69.5620346   6.3413507  11.9601321  69.6243238   6.9818890
  56.4301205  24.0219402  50.9426165  57.1273518  24.3919110  50.4011202
  55.8330631  23.6117101  50.3169489  73.3298397  71.7671347  24.1992116
  74.2567015  71.9656324  24.3324685  73.0128002  72.4717903  23.6342549
  78.3342075  12.1337974  64.0721321  77.9884005  13.0201972  64.1767454
  78.3690882  11.7837024  64.9623299  73.5058975  76.7592287  30.6534100
  73.8947868  75.9587574  30.3009319  72.9677868  77.0990419  29.9384284
  44.2360210   3.5699517  25.0062799  44.7612095   4.2424715  25.4400182
  44.5334625   3.5834917  24.0965652  76.4451838  58.8590336  12.8850365
  75.6967926  58.4389734  12.4611318  76.9209099  58.1391335  13.2993579
  68.8530445  62.0732450  32.5390482  68.5589647  62.4179697  31.6958904
  68.4682512  62.6638365  33.1866312  19.2519188  70.7243776  14.8927736
  19.1335750  71.6609430  14.7344482  20.0391006  70.4955196  14.3986082
  21.1208916  43.7468100   3.9618009  21.1272287  43.3341122   4.8254386
  20.4542565  44.4305182   4.0279499  59.4962358  51.2856913  14.1143715
  58.7189770  51.0453606  13.6100423  60.1340008  51.5599203  13.4553707
   9.0356439  58.0415010   1.4425923   8.2499766  58.5745478   1.3208473
   8.8355303  57.4890327   2.1982138  64.7573948  34.6586442  56.0460424
  64.6794987  35.4652762  56.5554619  64.0801239  34.0838408  56.4026022
  22.8660750  68.9365864  50.4346180  22.9102778  69.1943169  51.3554096
  22.1315289  69.4379139  50.0805759  36.7700577  71.6535378  63.0606174
  36.7428875  71.3911915  63.9807606  36.1834955  71.0393858  62.6190329
  29.3911767   0.9151007   2.4003448  29.8441052   0.2822866   2.9576895
  29.2474532   1.6732970   2.9666609  27.8211427  54.6249294   1.7250785
  27.7543521  53.8352346   1.1882821  26.9238520  54.7971535   2.0104571
  24.5682406   3.2327184  48.3313704  24.7184587   2.6575381  49.0815926
  23.8173628   2.8468180  47.8802681   5.6531173  57.4807787  40.1364994
   6.3344651  57.0672703  39.6063995   4.8318279  57.1646500  39.7599673
  51.7445755   6.7217618  63.1356621  51.0790300   6.7343104  62.4478197
  52.1087313   5.8372384  63.1004763  16.3032079  70.3226376  14.2195165
  15.6881070  69.9515152  14.8520899  17.0992672  70.4841423  14.7259140
   4.4493604  73.7807226  32.4626184   5.2455509  73.4492302  32.0473790
   3.8920742  73.0088949  32.5623465  31.3245296   3.0232009  20.5122280
  31.0698962   2.1339136  20.7583213  30.8476806   3.1927073  19.6997547
  70.7823515  45.5101871  21.3802266  71.3076019  46.0845470  21.9374061
  71.2870979  45.4350328  20.5704069  75.3565311  33.4503508  10.7088721
  76.0680103  33.1043935  11.2477088  74.5633364  33.2644868  11.2113953
  80.9224796  66.9343567  44.7383690  80.0717449  67.0972347  45.1457500
  81.1562347  66.0491562  45.0176716   7.0723355  62.1798849  39.6631336
   7.0831323  62.9064417  39.0400553   6.3952237  61.5900993  39.3316126
  15.3422475  43.2565546   4.7941980  14.9777997  42.4762774   5.2120209
  16.1099851  42.9377031   4.3197039   7.3156255  50.2065039  22.5533485
   6.4618212  49.7794151  22.4837470   7.8156948  49.8643637  21.8123341
  18.0229986  33.5908580  17.2774279  17.6759493  34.0206623  16.4957261
  17.7410698  34.1485381  18.0025077  61.9197035  62.3815727   2.2386654
  61.2984324  63.0746746   2.4619468  62.6925135  62.8467178   1.9182965
  70.5645132  59.6621752   6.5605527  71.3434124  59.1939878   6.8611401
  70.5188799  59.4740820   5.6231260  77.5080252  53.5701752   4.4836736
  78.1698704  52.9291248   4.7429985  77.1260405  53.2097101   3.6834341
  10.6139028  59.4868612   7.2893643  10.7975197  60.4259682   7.3137778
  11.4065731  59.0786934   7.6376528  29.7857594   4.1347578  25.6041336
  29.3830037   4.4107896  26.4274335  30.6542635   4.5370018  25.6156754
  79.0666151  73.8860178  21.0999632  79.4432306  73.9960384  20.2268720
  78.2586432  73.3945417  20.9520912  29.0498757  62.9797029   9.7802258
  28.2459831  63.0681276   9.2682022  28.8088965  63.2768583  10.6576419
  59.9641895  17.0790982  63.8186264  60.1077509  17.4011612  62.9287434
  59.6483707  16.1831808  63.7010622  12.3094726  73.3077192  14.3467104
  12.6877570  73.6420155  13.5334599  11.6642904  73.9679193  14.5998967
  68.4138060  70.2396154  22.3079109  68.7110615  71.0149908  22.7839971
  69.0483522  69.5603704  22.5364113  60.7835224  75.9413633   0.4135122
  60.0985745  75.3890214   0.0366916  60.7184342  76.7658744  -0.0683365
  38.5165906   1.7376836   9.9243271  38.9331460   1.0430852   9.4141829
  38.1591415   1.2901264  10.6912398  21.7381597  51.4315796  10.3366339
  22.4152374  52.0013094   9.9716604  21.1074281  52.0326662  10.7330000
   5.6039613  38.7158942   7.6144570   6.5054363  38.6341858   7.3031712
   5.6691378  38.6207342   8.5646820   5.3119791  40.3819227   2.5079006
   5.2572012  39.9596071   3.3651522   6.1801356  40.1470470   2.1802281
   8.7834024  68.4158850  48.0554390   8.8873106  68.4615421  47.1049881
   8.0072737  68.9457893  48.2372522  27.0498133  14.2841673  66.6050053
  27.9623222  14.4773495  66.8200302  27.0050740  13.3281732  66.5875387
  66.1182022  69.1435289  19.2342460  66.6600466  69.4084787  18.4909844
  65.2194357  69.2136049  18.9124691  81.1177063  51.5006161   6.0144377
  81.0131073  50.5547285   6.1173296  80.4505157  51.7470884   5.3738576
  11.2302482  33.3502150   6.0917652  11.4222610  32.4340987   6.2919945
  10.4022336  33.3221388   5.6123543   6.7314690  69.0922594  23.3384562
   7.1613783  69.5892048  22.6424289   5.8268684  68.9963007  23.0405927
  68.8034201  25.3396726  54.4098711  68.2005692  25.8030772  53.8284349
  68.2456970  24.9934840  55.1065254  51.6428471   0.9795126  66.1798334
  52.5280190   0.6339870  66.0644341  51.3296652   1.1381157  65.2893305
  48.0439949  20.2539492  60.6264591  47.6912785  21.0815907  60.2996111
  48.5544157  19.9057579  59.8953915  55.9242868  30.3590512  52.2654247
  55.2487850  30.4353738  51.5915489  56.3676596  29.5340776  52.0677614
  63.2081461  33.5955238   7.6151025  62.7102423  34.0098500   8.3198422
  62.8221655  33.9447260   6.8117917   8.0149102  49.9633980  25.1359081
   7.6134270  49.8433828  24.2753053   8.6787343  50.6391621  24.9983835
  55.3102636  61.5665483  13.4450948  55.8500290  61.5996552  14.2348981
  55.2085495  60.6322527  13.2634962  42.4100018  61.3370323  32.2031069
  43.2076740  60.8307219  32.0494795  41.7426157  60.6791925  32.3982406
  68.4287739  13.2037663  45.3582430  69.1081381  13.6206841  45.8882236
  68.7396669  12.3072505  45.2324009   9.6943635   1.4006443  10.9667778
   8.7522054   1.2321258  10.9798765   9.8761743   1.8103644  11.8125355
  19.4806039  51.5547276  18.7849879  18.6171401  51.2484217  18.5077941
  19.8125434  50.8566189  19.3495107  63.8000154  47.1790600  52.6344585
  63.5369730  47.0836926  51.7190647  63.6783981  46.3073349  53.0106735
  25.4922414  65.2395296  18.5051572  24.6500969  64.8292398  18.7018394
  25.2718306  65.9794855  17.9393697  44.6019983  39.9615288   0.5586745
  45.2837467  39.3994761   0.9268507  44.8793840  40.8506155   0.7796204
   8.7069178  64.9457455  16.4536881   9.0561259  64.8168850  17.3355496
   9.4279706  65.3443623  15.9664333  19.3327403  76.5657854  14.8523450
  20.0089335  76.6000795  14.1757226  18.5196173  76.4133930  14.3708467
  63.9027405  18.4907436  65.5308771  63.4590769  19.3054414  65.2949572
  63.8554239  18.4602773  66.4864206   7.7176064  65.5046320   0.7854512
   6.7822486  65.4180336   0.6015019   7.9435039  64.7045088   1.2598012
  75.2928638  69.7802591   0.7842211  76.1695051  69.9612522   1.1232916
  75.4432106  69.2446947   0.0052471  13.5716617  66.0841560   1.4688052
  14.0862119  65.9948397   0.6666249  13.9797485  65.4750490   2.0841822
  79.0564537  40.3167200  43.8688946  79.7882128  40.3665113  44.4839430
  78.2812738  40.4842758  44.4048548  64.8098850  45.6290483  17.8304875
  65.4819775  44.9981833  17.5725436  65.2605677  46.2300444  18.4237123
  63.1223965  51.2322044  63.3208466  62.5465918  51.5921783  63.9954567
  62.8247690  50.3293896  63.2087088  11.1454666  74.9484921  25.4856992
  11.3696408  74.3502760  24.7728777  10.3640342  75.4069567  25.1768184
  20.8102489  62.7947330  10.1406884  19.8682523  62.7786207  10.3098464
  21.0681248  61.8729496  10.1336229  63.7580490  13.1418765   4.7240895
  63.2731533  13.0026543   5.5375540  64.5907545  13.5222018   5.0037134
  10.8806157  71.2706375   9.2059326  10.3939068  72.0585155   8.9638609
  11.6124165  71.2423468   8.5895729  52.7129889   4.8430753  25.1796651
  52.5989056   5.7875723  25.2852178  53.6522102   4.7006556  25.2971959
  21.9631743  75.8076715   4.0898106  21.8007278  76.5805674   3.5490048
  21.0919356  75.5152369   4.3575001   5.4169863  73.3095646  19.8139155
   6.0238665  74.0180349  19.5994365   5.7878649  72.9058075  20.5985546
  23.4980392  70.1036167  14.6542370  24.0322065  70.2818918  15.4282618
  24.1024041  69.6937847  14.0353584  22.5541067  35.1621270   0.4133705
  22.9523587  34.4253469  -0.0500750  23.1479740  35.3347468   1.1439559
  13.7021673  63.4136724  64.6286726  13.8011992  62.7023458  63.9958715
  14.5990443  63.6533737  64.8618841  50.5633831  35.4125834  59.1622114
  50.0563574  35.6335378  58.3809662  50.0425673  34.7419000  59.6039867
   5.8317667   5.5393583   8.1008005   6.3265640   6.2745452   7.7389884
   6.3259947   5.2771133   8.8774586  62.0602131  21.5539718  62.1410704
  61.1916637  21.8901515  62.3620605  62.0381594  21.4395785  61.1909866
  57.1194458  25.9972119  59.9453402  57.4687624  26.5876079  59.2777729
  56.1739731  25.9994268  59.7959852  70.9077168  51.7214155  11.0512817
  70.4351759  51.0546589  11.5496516  71.2667465  52.3082685  11.7168164
  12.0407522  70.2201176  14.5483088  12.0642602  71.1238718  14.2338204
  12.6634264  70.2031517  15.2750969  34.4237900  12.3208857  27.5843334
  33.5777998  12.4174356  28.0216074  35.0522208  12.7160597  28.1886053
  71.3784981  70.3545618  30.5229783  71.1533928  71.2712288  30.3639865
  70.6516075  69.8602486  30.1441431   7.0972830  34.7906184  17.0784712
   8.0329126  34.9501753  16.9544911   6.9077849  35.1412058  17.9487646
  58.0901718  18.8067973  58.6621284  58.7588739  19.2678177  59.1686153
  57.7050161  18.1872880  59.2818832  73.7015581  45.9169531  59.0230703
  73.0615377  46.5201998  58.6453152  73.5991812  46.0206985  59.9691057
  62.6829052  16.2153900  64.0451050  63.0698013  16.9063652  64.5827818
  61.7415237  16.3856578  64.0772915  42.3911095  18.6993957   1.2884991
  42.5110006  19.6488333   1.2678826  43.2601023  18.3525801   1.4904934
  33.0342102  15.5072784  19.8534346  33.2279968  16.3499689  20.2639866
  33.5545945  14.8744345  20.3483510  57.8327656   3.7693617  21.0258889
  56.9566298   3.8869062  20.6587410  57.9096985   2.8253838  21.1645246
  19.0980446  64.9574661  15.7502687  18.8390899  64.7599363  14.8501813
  19.9733448  65.3364563  15.6699824  53.1109333   9.2890680   2.0925620
  52.4353790   9.4547278   1.4349784  53.9223528   9.5896655   1.6833349
  27.1058655  75.1167440   1.1596906  28.0600834  75.1350212   1.0864321
  26.9129229  74.2713690   1.5650937  43.7500477  20.0495672  64.0797710
  42.9736280  19.8774099  63.5470772  43.5462189  20.8608675  64.5450401
  39.3639040   3.6412773  11.7266643  38.4507203   3.6233404  12.0130336
  39.3476152   3.2571226  10.8500850  49.4178772   4.7419581  27.0997214
  50.0326777   4.0211189  26.9631791  49.6384335   5.3771603  26.4184690
   4.2983535  45.8842087  13.0872905   4.6880323  45.0107479  13.1254113
   4.8393118  46.3605309  12.4574411  54.1847992  37.1463060  62.4196148
  53.3977938  36.8752646  61.9469690  54.1431427  38.1025791  62.4256611
  81.1972904  68.9878035   9.7338456  80.4384327  68.4077072   9.6717286
  81.3844872  69.0377522  10.6712317  67.5915432  50.1476622  15.7592440
  68.5286713  50.3422165  15.7462168  67.1719646  50.9987354  15.8851838
  67.5460482  72.2730589  20.2304268  68.4137249  72.5413609  19.9281347
  67.6908636  71.4265919  20.6532168  18.0267835  64.1469526  13.1774938
  17.3171151  64.7892523  13.1848514  18.7131560  64.5544291  12.6492071
  60.3980494  55.6521082  20.7056856  60.3864813  54.7645950  20.3473330
  60.6220961  55.5347538  21.6288686  23.9583850  61.1390972  26.2200022
  23.8266850  61.9877958  25.7974005  24.5687151  60.6773901  25.6450605
  67.2852755  52.9742432  58.3018970  66.9682837  53.1304741  59.1914701
  68.2118225  52.7605915  58.4118700   2.5791427  67.4454403   9.3678129
   2.5000924  68.3893824   9.2301321   2.7099180  67.0855570   8.4905356
  20.9640551  65.2019072  11.8887281  20.3091741  65.8718538  11.6924286
  21.0161734  64.6766710  11.0902023  62.2384357  66.0363293  59.1707563
  61.9673491  66.6631222  59.8414803  61.8126392  65.2168846  59.4226217
  60.8816528  70.3910589   0.2612091  60.1709318  70.8707714   0.6866233
  60.8327389  70.6553698  -0.6574738  20.6599951   6.4509064  13.5640931
  21.5223551   6.8581057  13.4818959  20.5619073   5.9341753  12.7643430
  45.0692081  26.1722898  66.8912077  44.8164320  27.0705748  66.6780901
  45.2306366  25.7610369  66.0420656  56.6274214  13.8860989  21.2860346
  56.4991808  14.8295510  21.1876297  56.4917040  13.7219870  22.2192454
  11.4318609  70.1113558  28.4506464  11.7697346  70.9002018  28.0266237
  11.0919261  70.4181480  29.2912126  38.1741285  37.1636653  64.9676991
  37.8371453  36.5938544  64.2763329  37.6057172  36.9913912  65.7183409
  32.6179910  71.3231945  12.2112918  32.2917271  71.2854242  11.3122058
  33.2490301  70.6056499  12.2674346  51.2289047   1.5037426  12.4878776
  50.6548214   0.8622881  12.0693123  51.2929153   1.2107201  13.3968735
  59.0890312  18.5612786  31.9192338  58.7168407  18.7214100  32.7864504
  60.0119734  18.3701956  32.0862579  62.0780849  36.3099217  54.0319061
  62.3808575  35.4412651  53.7673378  61.6713953  36.6718817  53.2446194
  28.6020017  12.1724343   2.5788543  28.7113333  11.3944042   3.1256157
  28.9191699  11.9053817   1.7161155  64.1488457  33.1896996  65.8281326
  64.3417072  32.2710609  66.0155916  64.9843407  33.6400032  65.9522629
  73.6952066  70.9900045  17.9680109  73.3007193  71.5804863  18.6098409
  73.0656290  70.9643602  17.2474504  24.4309211  66.9211149  16.0525763
  25.1475644  67.4763393  15.7453632  24.3389940  66.2517071  15.3745818
  15.8283377  65.4812622   5.6206250  16.5700603  65.0592661   5.1870406
  15.7627034  66.3394785   5.2018225  53.8156796   6.6817921   3.2596907
  53.6085320   7.4324185   2.7030206  53.2959127   6.8201298   4.0514857
   3.0076104  72.4475050   6.2165028   3.6284909  72.6957035   6.9014388
   2.1915133  72.8821754   6.4640498  79.9740076  51.9016647  13.0824244
  80.4959965  51.5884352  13.8211024  79.1375971  52.1572065  13.4714675
  32.8972793  68.7143850  29.4082355  32.2247434  68.2521439  29.9084973
  33.7247825  68.4064627  29.7779036  18.6971378  49.3976212  15.3283775
  18.1629753  48.8718081  14.7330439  18.7651491  50.2504921  14.8991716
  31.0314369  71.1637306  25.6118464  30.0942802  71.3348341  25.7050824
  31.3973737  71.3579035  26.4747596   5.1875979  61.0547209  19.1896141
   6.0156161  60.9017611  18.7343967   5.3903979  60.9038162  20.1128316
  32.5667906  66.3370943   1.7432000  31.7509913  66.8377542   1.7369503
  33.1582308  66.8358612   1.1795860  59.3580580  15.1232100  19.4459438
  59.0487862  15.6210363  18.6891389  59.0094376  14.2419291  19.3116355
  68.8729572  48.0593777  20.7587194  69.0410089  48.9429188  21.0863471
  69.6659327  47.5688457  20.9750676  17.6612639  60.0505447  27.8288794
  17.1326780  60.2050495  27.0459652  17.1703625  60.4694605  28.5358143
  29.5696235   6.6623729  15.8794975  29.3089509   6.3360929  16.7407894
  29.0798497   7.4779922  15.7740605  70.9058189   0.1483749   9.9974352
  70.7183266   1.0575192  10.2309632  71.8594360   0.0806450  10.0450146
  46.0638285  46.0096598  15.3408086  45.1597929  46.0246515  15.6550109
  46.2580204  45.0809574  15.2141869  43.4299660  12.3517895  17.9924428
  42.9480839  11.8176532  17.3610020  44.3433046  12.0874619  17.8821003
  28.6035872   5.1078546   8.8901162  27.8943968   5.1966792   8.2534134
  29.3883753   4.9773508   8.3578503  46.0975101  15.5150263  -0.1384793
  47.0063379  15.2183144  -0.0912342  45.5930069  14.8058407   0.2599706
  62.9786205  63.0739403   5.7041955  63.5628223  63.4095860   5.0242829
  63.1097507  62.1259403   5.6860745  69.4357681  31.8101406  23.8842678
  70.3011322  31.5443468  24.1952729  69.1718960  32.5110602  24.4803524
  65.4434156  46.0626841  44.8626757  65.1143551  46.7483568  44.2814684
  66.3537741  45.9379053  44.5945120   7.8263992  58.2545519  53.8608932
   8.2292414  58.9720678  53.3718967   7.5634682  57.6250553  53.1894493
  18.1632602  15.4131925   6.3181758  17.5527036  15.7451057   6.9764203
  18.5142314  16.1990047   5.8991897  71.2453222  37.2212338  43.5911512
  70.6313992  37.8646016  43.2370234  71.5468073  36.7314291  42.8260183
  75.2021933  44.0186214  26.2309670  76.1372995  44.0008020  26.0272670
  74.7757864  43.7293768  25.4242754  26.0922551  71.9409084   9.1160047
  25.7739520  71.3709021   8.4159988  25.8487487  71.4877701   9.9232256
  34.7966838  67.5270128  15.3144360  34.7427869  66.8266869  15.9647191
  34.2957973  67.1993303  14.5674634  77.8001881  25.2058315  66.6926050
  77.9114103  26.1291528  66.9191837  77.4769878  25.2175450  65.7916927
  19.0282762   1.6293244  10.0624812  18.7736583   1.9683664   9.2043138
  19.9836683   1.6877291  10.0692439  64.6616268  46.3899565  11.2773705
  63.8326454  45.9477568  11.0943890  64.8639584  46.1544323  12.1828103
  41.2944412  11.7521203   2.9628867  41.0093546  11.3233650   3.7698111
  41.0365105  11.1480010   2.2666493   0.3278852  65.1323795  22.2665882
   0.6666209  64.8220921  23.1063557   1.1024803  65.4362631  21.7934179
  81.3911357  38.4558296  63.8536835  82.0907070  37.8748798  63.5547972
  81.3508764  39.1437674  63.1893396  14.4973898  66.3212061  13.1219614
  14.5804334  67.2721910  13.1923711  13.5543633  66.1665440  13.0670655
   0.9161972  70.2656612   0.0490608   1.4119601  70.8179579  -0.5554352
   1.3673472  70.3633819   0.8876028  33.4662747  12.0155227   6.0531110
  33.8332081  12.8067172   5.6586456  33.0985665  12.3114634   6.8858421
  71.4217854  50.1542664  63.9835501  71.9845915  49.3871593  64.0885639
  70.5527925  49.8516703  64.2472124  49.3346310  11.1401856  26.6861224
  48.4594965  11.3469255  26.3580608  49.6291780  11.9473827  27.1079135
  74.3428421  67.3715019   1.8715218  74.4488764  68.1063795   1.2674174
  75.2373362  67.1122503   2.0926611  79.7358656  53.8324070  66.3833284
  80.5684280  54.2283869  66.1258841  79.8117447  53.7090588  67.3295116
  35.6943154  54.0699053  32.5828505  36.2526727  54.1999578  31.8163300
  35.7682371  54.8878241  33.0745602  69.8098993  47.8809690  51.8001366
  70.0152445  47.3985863  50.9992790  70.1668453  47.3394489  52.5041103
  15.2023530  36.4445877  66.0878849  15.4931831  36.4214349  66.9995356
  14.9871969  35.5349040  65.8819389  10.3183341  13.4709990  12.5252521
  11.2374628  13.5722387  12.2778952   9.8296809  13.8068235  11.7738056
  72.8976202   7.6385438  19.0137458  71.9757986   7.8808463  19.1019058
  73.3298206   8.0680567  19.7519529  41.8578386  30.9655118   6.9365168
  42.7468204  31.3184571   6.9736272  41.9782734  30.0167322   6.8972397
  47.5760651  76.5099573  26.0916257  47.4463129  76.0873652  26.9406319
  47.1148014  75.9463024  25.4705334  78.3061647  43.4835958  63.4468699
  78.6996603  43.9831400  64.1623068  78.0238867  44.1477060  62.8179741
  63.0110455  17.0980072   8.1104678  62.9875898  16.5947902   8.9243805
  63.9332533  17.0958400   7.8540254  64.4348717  19.8190367  25.8453012
  64.5032978  19.9925542  24.9064517  64.3740416  18.8658905  25.9089017
   7.4724418  72.4527931  23.6258817   8.4273279  72.4102592  23.6770201
   7.1695954  71.9641972  24.3912506  64.7634363   2.1888107  10.7836235
  64.7462511   2.5381747   9.8926228  65.3304195   1.4195839  10.7283783
  44.8246431  17.7181423   1.8830420  45.7025623  18.0140281   1.6423261
  44.7572851  16.8393683   1.5096085   9.8266923   7.9805070  22.0143843
   9.8015362   8.2232505  22.9399538   9.0296865   7.4678534  21.8794775
  59.6377563  15.7585824  24.0516496  59.5055676  14.8147929  23.9620924
  59.6164227  16.0896862  23.1537938  42.4882984  39.7685289  15.7046998
  43.0354214  39.4222593  16.4096713  42.7574492  39.2765641  14.9289668
  77.1886730  43.1363821  55.5809021  76.3129282  42.7593517  55.6654644
  77.4463463  43.3472300  56.4783335  71.8236065  54.3575287  61.4228296
  71.9239902  54.7016001  62.3103952  72.4042654  53.5971260  61.3936234
  51.3410616  75.6947565  14.9343789  51.3797569  75.4441023  15.8573663
  50.6633139  76.3697004  14.8976994  76.7358494  44.2413044  66.6688919
  77.6499510  43.9649153  66.6036415  76.7804193  45.1899719  66.7883778
   0.4000289  38.4145355  52.1849108  -0.4361456  37.9488897  52.1997023
   1.0329990  37.7608037  51.8878984  32.9893589   7.2996849   0.9391280
  33.0957842   7.5809491   1.8478611  32.0761275   7.0189244   0.8806929
  66.9871187   1.2344236   8.3801568  67.1817827   0.8351801   9.2280620
  66.1011934   0.9369481   8.1730944   4.4079065   5.2227998  21.2412262
   3.8118994   5.6730241  20.6426406   3.8962373   4.4890061  21.5817738
   0.4627098  48.3874035  67.1157169   1.2227204  48.1542778  66.5825510
  -0.2908521  48.1543922  66.5734243  25.5919933  67.4470425  54.4903898
  25.3761911  67.6624107  55.3977346  26.0810661  68.2065105  54.1737700
  70.0700855  11.4373672  60.0602627  70.7080078  11.1994159  59.3874598
  70.3216076  12.3216486  60.3267527  73.5673666  47.0197439  13.0868363
  74.1214275  47.7847815  12.9320419  74.0595293  46.4906502  13.7145865
  55.8221006  23.1628346  60.7490730  55.9645271  22.3516178  60.2613497
  55.6322670  23.8166499  60.0762272  80.6339264  26.5959859   1.4869595
  80.7795620  25.7296681   1.1068058  79.8016930  26.5161943   1.9530594
  61.8064880  34.6028686   5.3835583  61.0490370  34.4189882   4.8279622
  61.7343616  35.5356741   5.5858082  75.2696371  36.1568141  11.3268232
  74.6513510  36.3921857  10.6350482  75.5350351  35.2615356  11.1164176
  32.5301743  65.7396078  50.9495878  32.2372150  65.3294039  50.1358700
  32.6951385  65.0059223  51.5418053  59.5547819  64.2584419  56.8499470
  59.2136240  64.2642355  57.7442694  58.7967682  64.0449572  56.3058233
  65.3688431  35.9361434   7.1532100  65.9398746  35.2020645   7.3796654
  64.6708965  35.9074187   7.8076422   4.1491407  59.5245886  15.5606639
   3.5961613  60.1386261  16.0437822   4.0278712  59.7647619  14.6420550
  13.9596391   7.1618998   9.7396678  13.3449364   6.5041864  10.0649118
  14.1326404   7.7227157  10.4958344  76.4959383  48.1567430  10.6521201
  75.8081436  48.6957979  11.0427523  76.7499638  48.6297941   9.8597014
  44.1526651  14.1538298  58.8953638  44.1370153  14.7497618  58.1464672
  43.2815123  13.7572932  58.9041615  75.8518410  73.4861326   3.9638823
  76.7013884  73.5995007   3.5376808  75.4876041  72.6956511   3.5655081
  10.7445443  29.1163826   9.8345941  10.9006941  29.9288535  10.3159893
   9.7914475  29.0554214   9.7703934  72.9044056  25.0920510  18.3736360
  72.2216368  25.5947948  17.9294419  73.5613680  24.9300432  17.6965904
  33.7924051  24.8957491  34.8467684  33.7033558  25.2923131  33.9801455
  34.4301414  25.4483223  35.2986383  56.9968891  18.7152696  52.4670553
  57.4707937  17.9375291  52.7616215  56.2292004  18.7581992  53.0371857
  78.7976313  33.6428809   0.9688476  78.7471771  33.4540272   1.9058752
  79.4954109  33.0722785   0.6467508  58.9316416  11.1282086  59.7664118
  58.2134390  10.8725250  60.3452396  59.3306160  10.3000534  59.4995594
  50.7834768  12.0511317  65.4607058  50.9292650  12.9766154  65.6568098
  51.6598272  11.6977537  65.3078413  54.2362690   5.1947254  55.8790779
  54.6394873   5.5636626  55.0932455  54.5636082   4.2960298  55.9168530
  55.5139542   5.6479508  63.0096531  54.9400139   5.0083643  63.4312677
  56.3363695   5.5888915  63.4958410  22.8244209  65.4292440  52.8424120
  22.5298929  65.5332756  51.9376135  23.3948946  66.1822367  52.9966688
  74.6113205  54.1639042   4.2621124  74.1282749  54.8805666   4.6735650
  75.2170038  53.8632822   4.9396095  70.5832624  10.7849228  63.9975405
  70.3901386  11.1129189  64.8758078  70.0715303  11.3457048  63.4145451
  79.5731258  16.8967390  65.4061842  80.0728130  17.3624301  64.7356081
  79.1930151  17.5897408  65.9460878  22.0085478  60.3281879  38.5256886
  21.4499950  59.5654631  38.3756709  22.4267006  60.1565933  39.3694496
   4.5419791  34.2541909  51.7249489   5.3831965  33.9137578  51.4205027
   4.7735837  34.9586058  52.3302555  60.2962828  18.3607149  44.5570803
  60.2986336  18.0248594  45.4534197  59.7628975  19.1543651  44.6000814
  79.1139555  69.3971157  23.1979060  79.7024345  68.7000513  22.9080391
  78.6117840  69.0050077  23.9122605  14.2002106  70.5053806  10.0444841
  14.2212880  69.8503065  10.7420993  15.0532460  70.9366655  10.0950587
  65.8178043  21.0282445  63.9811754  65.0356722  20.9991884  64.5322323
  65.4982471  21.3186049  63.1268883  61.8137980  76.9881487  62.9271460
  61.3887978  77.7823734  63.2508993  61.2144279  76.2812281  63.1664085
  56.2900496   8.2052356  33.4746528  56.6347122   9.0625542  33.7245393
  55.3460979   8.2758862  33.6167789  19.1202080  48.7417412   6.3985926
  19.6089709  49.4851542   6.7516935  19.3056250  48.7574148   5.4596531
  41.5387869  65.1822233  63.4911919  41.6503143  66.0450649  63.0920744
  41.2793112  65.3675318  64.3937206  66.1765909  22.2249818  59.1948605
  67.1051741  22.4476790  59.2609692  66.1489487  21.4940715  58.5774136
  28.5418177  68.1181717  18.9201903  29.1199207  68.0084658  19.6751702
  27.9111004  68.7832212  19.1961157   4.8387772  67.2758627  11.2426555
   5.3742087  68.0657291  11.1674511   4.1734821  67.3717117  10.5611670
  29.2837262   3.7524164   4.1379383  29.0271306   4.5474911   4.6051076
  30.0519586   3.4336376   4.6116781  44.2317057  59.5649910  31.0296345
  44.7520208  58.9387274  30.5263448  44.6743584  60.4036188  30.8992410
  18.7078357  65.7169247   6.2959963  18.3408618  65.4779196   5.4448569
  18.4583521  64.9967957   6.8751371  26.5420866  74.1314650  40.5385685
  26.5459776  74.8935938  39.9594498  26.3250732  73.3962107  39.9653840
  17.1882153  48.0258131   2.4475724  16.7300618  48.5157824   1.7647421
  16.6881859  47.2144747   2.5366423   5.2699775  19.7077537  66.7215681
   5.7510114  19.0745461  66.1887598   4.6241578  20.0829363  66.1229134
  59.9450874  10.8864355  55.6735229  60.0096846  11.5130985  54.9528646
  60.1501083  11.3988388  56.4555979  57.7479887  14.8388493  60.1672316
  57.5119019  14.2086351  59.4865513  56.9394350  15.3222501  60.3369236
  26.2357020  30.7556486   0.5964915  26.1689997  30.3242946  -0.2553985
  26.7769790  31.5278339   0.4322351  26.9963002  42.3197317   3.5746658
  26.5454602  43.0814886   3.9389479  27.8675652  42.3452520   3.9702377
   1.5417404   7.4022526  50.7058620   1.8602623   7.9746264  51.4038324
   1.5135489   6.5321451  51.1037922  26.3868499  71.0884619  44.3240929
  26.7749906  70.2316189  44.1469049  27.1343279  71.6842937  44.3740416
  23.6411238  75.0603437  13.1070781  24.3536711  75.5135965  13.5577142
  23.7165952  74.1503620  13.3942556   8.0064106  62.7936220   5.3403574
   8.5804999  62.4297190   4.6663922   7.6971281  63.6205673   4.9705744
  61.8128061  43.5733461  59.4721127  61.7745543  43.4162235  60.4155540
  61.1710644  44.2667627  59.3185663  62.4222660   5.2811044  65.3569412
  62.2076035   5.6252998  64.4899464  62.6895142   6.0500437  65.8604717
  70.5665064  72.7071095  43.8482141  71.4089441  72.5808048  44.2847586
  70.7135677  73.4410334  43.2515907   8.2358915  28.9655924  63.0072546
   9.0673375  28.5139680  63.1520462   7.8656179  28.5430837  62.2322607
  68.3858490  12.2588241  38.7614012  68.6566877  12.3152077  39.6777511
  67.9513693  13.0939734  38.5882401  72.6893759  33.8646102  64.5682764
  72.1568251  33.1544948  64.9265432  73.5225868  33.7979126  65.0346899
  80.6979752  21.0610223  65.4440403  80.3920460  21.7181516  66.0691977
  80.9809208  21.5679145  64.6829605  46.5855026  28.5420275  62.3148251
  46.7042542  29.4040704  62.7135897  45.7006884  28.5664988  61.9504929
  49.9085283   1.6073926   5.0782400  50.3776932   2.4389206   5.1466453
  49.6730709   1.5406586   4.1528547  48.7891579  69.1671801  51.6719294
  48.1232452  69.5889854  51.1289024  49.2267275  68.5540724  51.0812855
  69.5477867  35.3987741  61.2322950  70.2049065  35.1498890  61.8822813
  69.8074484  34.9316454  60.4381943  66.7356539  22.6736307  48.2162380
  66.6466093  22.5441146  47.2720289  66.0092449  23.2522178  48.4481859
  19.9327958  52.9141474  11.5700638  19.0338922  52.5852299  11.5660143
  19.8443305  53.8507605  11.7466068  72.9826641  55.6409645  16.2676263
  72.2232580  56.0246611  16.7061543  72.7021551  54.7563648  16.0330582
  56.3001919  23.1309009  56.5504169  56.4219332  24.0730906  56.4334202
  55.4414177  23.0500627  56.9653893  50.1700544   1.5482871  44.2534494
  50.1778698   2.4708059  44.5086527  49.3322515   1.2173198  44.5771456
  57.5556374   3.2552260  66.1122561  57.4953413   4.0210927  66.6832590
  57.9567719   2.5797445  66.6591120   8.7665200  75.0443363   6.4547145
   8.4193933  74.5050383   5.7441568   8.4434950  75.9254837   6.2663966
  11.4835978   7.9028374  37.7200770  10.6555998   8.3816624  37.6829767
  12.0109892   8.2815248  37.0167375  74.5929289  29.4941664  13.8917756
  74.8485374  30.2825499  14.3706775  75.4066563  29.0000415  13.7921786
   9.8583728  38.1423068  20.6222200   9.6554506  37.3590159  20.1108384
  10.5782533  38.5582018  20.1478434  80.8923817  32.0477653  66.6045427
  80.7891560  31.6759396  65.7285738  80.0024033  32.2730231  66.8755245
  71.8026114   8.6292666  60.9224510  72.6076078   9.1395438  60.8339787
  71.1088467   9.2256230  60.6408834  70.4616070  13.5825431  47.4201441
  70.2794456  12.7068627  47.7610731  71.2858391  13.8349140  47.8362989
  62.0147705  16.9616675  54.7409058  61.4165211  17.1813560  54.0267134
  61.4451504  16.6428423  55.4409885  74.0397263   0.6144594   3.2554907
  73.1348705   0.3049793   3.2965752  74.1060448   1.0484298   2.4049005
  39.4760633  22.8452682  13.3143961  39.3314481  22.4395227  12.4595928
  40.1973534  22.3460817  13.6975181   1.5541983  22.5615025  62.3720884
   1.7946115  22.7320981  61.4614105   2.1038544  21.8216276  62.6303387
  74.4686890  21.3203478   5.2573651  74.0435743  20.4907966   5.4749686
  74.2188692  21.9111156   5.9678680  61.3064957  12.2101820  57.7325058
  62.1282148  12.5588620  57.3869181  61.0768318  12.8030849  58.4480143
  35.7453465  24.3551087  52.8387451  36.6455579  24.6602583  52.9515934
  35.8096004  23.6541295  52.1901035  51.5277767  76.7329836  47.6504898
  50.7221651  76.2167549  47.6234245  52.0755339  76.3584375  46.9606256
  61.5908718  53.6133480  12.6362538  61.1042976  54.3040991  12.1864402
  62.0059729  53.1152916  11.9320750   6.8540537  76.6449308   1.0194767
   7.7603418  76.4822388   1.2810212   6.8127662  76.3577175   0.1073178
   4.2984375  56.4634323   8.3688074   4.6385425  56.2643003   7.4965078
   4.2198920  57.4172926   8.3832562  23.3537960  41.9732475  10.6252968
  23.2839298  41.1287212  11.0704100  22.6257992  42.4882746  10.9731472
  57.8348732  12.1396410  63.5381460  58.5196733  11.4711082  63.5196352
  57.1712923  11.8197668  62.9269409  46.8795776  10.1571929  52.0945120
  46.2661982  10.7097578  51.6100836  46.4252520   9.3198830  52.1879530
   8.1934935  38.5963154   7.0544934   8.8120425  39.2934608   6.8362790
   8.5034579  38.2550073   7.8933400   2.0055406  44.6300125  64.4501162
   2.0663862  44.4399595  63.5139465   1.0792299  44.8222733  64.5957708
  17.9015362  40.0183201   0.9943128  17.4949980  39.7747540   1.8259579
  18.6773598  40.5199099   1.2447935   5.9798717  58.4165955   5.1409435
   5.0601095  58.6087561   5.3235459   6.1803222  57.6597261   5.6915790
  78.6293364  71.0738039   4.4547543  78.7480927  71.1933899   5.3970003
  79.4704819  71.3254786   4.0734869  10.4364324  44.0638638   6.1952001
   9.8746628  44.0225458   5.4212886  11.3273478  44.0401936   5.8459991
  30.0683355  29.5377469  65.5004787  30.7893515  29.2754340  64.9281502
  29.7220778  28.7135506  65.8425903  72.2172689  62.4580479   1.7218247
  72.0275116  61.8406296   1.0154098  72.3499203  63.2959175   1.2784225
  38.9581490  18.6931658   4.5848754  38.8303423  17.8264809   4.1991886
  39.4622445  18.5287166   5.3817916  79.5854998  58.3643770   5.3058708
  78.7830019  57.8443575   5.2633131  80.2344322  57.7726555   5.6866425
   2.1152571  37.2167182  62.4645138   2.9340222  36.7522669  62.2909021
   2.3588000  38.1423879  62.4572372  30.6053710  44.9657202  16.6597700
  30.2513194  45.3338385  15.8502197  31.2395167  44.3108416  16.3678408
  29.5760226  63.0740404  61.7348146  29.0572047  62.4731541  61.2000275
  30.0606585  62.5049782  62.3327494   4.5669681  37.6366282  26.0642505
   4.0061426  37.8652716  26.8054843   4.1445142  36.8730855  25.6708455
  19.6639776  40.3822136  10.1195645  19.9762511  40.6491375  10.9841275
  18.7114334  40.3502989  10.2082956  79.4693327  20.4587460  52.0538521
  78.5878897  20.7291603  51.7966270  79.7018480  19.7731614  51.4276409
  53.1345415   5.7392782  58.4331656  52.5810909   5.0097495  58.7119341
  53.3294916   5.5545628  57.5144100  37.1934295  75.6161690  11.3375568
  36.9612455  74.7118759  11.1264300  36.4062405  75.9764719  11.7459035
   6.7716050  57.1505976  37.0741844   5.9189433  57.5732231  36.9713068
   6.6333318  56.2544870  36.7674208   9.2992479  42.9425955  51.0188723
  10.1706111  43.0494452  51.4003706   9.4149542  43.1577778  50.0933743
  73.8764572  32.1211100  12.5076735  74.0745592  31.3035154  12.9643202
  73.5976362  32.7205706  13.1998718  36.7737031  72.8847694  58.1206417
  36.5794277  73.4272289  57.3562956  37.5288272  73.3080864  58.5290813
  80.1313305  58.4198570  20.7672215  79.7602558  57.7781677  21.3728380
  81.0767841  58.2798338  20.8196020  74.7402954   7.5784343  59.9028111
  75.4303598   7.0018792  60.2308798  74.6683502   7.3611069  58.9733887
  47.8420305  33.6550260  64.6305752  47.2418976  34.3567705  64.8828077
  48.5231924  33.6691856  65.3029203  78.8077593  64.9720478   7.0740074
  79.3870544  64.8439312   7.8251648  78.5300159  64.0884972   6.8322945
  59.3144417  28.2487488  60.4594183  59.7144938  28.8585520  61.0793591
  58.6702967  28.7759018  59.9867439  61.5605783  20.2647471  46.5223503
  61.9166708  21.1506724  46.5899086  62.3316288  19.7003245  46.4662743
  40.8806658  75.5802488  53.6487389  40.6445360  76.2454414  53.0022192
  40.6797457  74.7480822  53.2205296  70.6404877  46.0181856  10.4741001
  70.5450773  45.3196287  11.1215162  69.7432566  46.2308836  10.2172577
   9.1085458  68.7221527  12.1413553   8.7554455  68.2708788  11.3746047
  10.0200570  68.9046669  11.9131744  19.9327815  43.3893061  14.4058180
  20.7401180  43.5288668  14.9007559  19.8549151  44.1652870  13.8508153
  23.5420775  59.4319153   2.5527054  23.1408930  60.0396442   1.9314596
  23.6457467  59.9433804   3.3551306  43.5813522  62.4735546  42.2278070
  44.3091106  63.0934525  42.2760439  42.7972746  63.0214167  42.2638702
  17.9718709  76.7838478  41.4010811  18.5773146  76.5918398  40.6849766
  17.9835522  75.9947014  41.9426966  10.2668107  40.4979801   6.4690197
  10.9424114  40.5616856   5.7939363   9.8894686  41.3765192   6.5138948
  62.0666170  28.0617189  57.7723408  62.7190733  28.2498479  58.4469795
  62.5433111  27.5593281  57.1115875  17.8429139  51.7526436   7.6254261
  17.4693787  51.6062403   8.4944886  18.6448061  51.2300062   7.6182467
  73.9163113  68.9865065  11.0139966  74.2303944  69.6508265  11.6274011
  73.6740637  69.4796610  10.2301955  30.1684785  67.8649759  54.7116661
  29.8816657  68.0452538  53.8164186  29.7474051  67.0350266  54.9355268
  81.1249828  58.9772320  13.3464372  81.1261082  59.9210548  13.1869876
  80.6629181  58.8754511  14.1785228   2.1077760  72.0410633  10.5217147
   2.3725188  71.5875196   9.7214389   1.7574719  71.3500834  11.0839093
  43.6557627   7.3232400  65.0177240  43.1543446   7.8232920  64.3737078
  43.5135555   7.7857977  65.8435869  50.8737803  15.7817876  55.3422546
  51.2626457  15.6447756  56.2061071  51.0535145  14.9704206  54.8672676
  66.0609007  34.3984556  63.0539656  66.4821053  35.2574229  63.0224466
  66.6930676  33.8380790  63.5040522   4.7518906  23.8775921  62.6255465
   5.0207782  24.7822142  62.4655867   3.8102973  23.8736057  62.4534464
  19.2224240  39.5098138   7.7001029  19.3516898  39.7036195   8.6285216
  18.2914734  39.2996502   7.6266551   3.8308403  46.4146471  10.0154102
   4.1962257  45.5410957   9.8753059   4.5210576  46.8919420  10.4758656
  14.4534802  64.0280724   2.7241769  14.8134947  63.7375784   3.5621721
  14.7331977  63.3596516   2.0987147  34.3437290  68.2005978  10.9633136
  34.9322987  68.8948774  10.6670082  34.3769908  68.2499123  11.9186640
  53.1712246  70.4421186   8.7742406  53.0323267  69.6954012   8.1916988
  52.9375744  71.2050724   8.2455271  51.6973877  20.7617521  44.9062777
  51.2884283  19.9325657  45.1541328  52.3799372  20.5150533  44.2821789
  65.8666563   8.0611479  49.8703432  65.1199198   7.8275269  49.3189478
  65.4777956   8.5008115  50.6264639  69.5670271  23.1220698  52.5075674
  69.1291046  23.1227207  51.6564226  69.4493866  24.0126419  52.8381348
  24.5598555  62.7487040   9.6207452  25.3441739  63.0992651   9.1986269
  24.5968938  61.8074131   9.4509566  64.4580126   5.4443014  10.2226365
  65.1136541   4.7814232  10.0059354  63.6544371   4.9463117  10.3726614
  16.4413333  68.2284260   4.9090490  15.6882346  68.5131645   4.3913674
  17.1737635  68.7424755   4.5691490  56.7569923  27.3920059  66.7038536
  57.0858097  27.5242090  65.8146811  56.0444975  28.0250621  66.7923307
  45.8878899   5.6108832   1.9421649  46.0701799   5.3296661   2.8387809
  45.8006334   4.7954828   1.4484648  68.2033873  27.9913330  47.8284788
  67.6080751  27.6174402  47.1788311  68.9635277  28.2758451  47.3210669
  77.2726583  39.2098379  56.2853527  76.5766382  38.7775540  55.7904577
  77.9016209  39.4891524  55.6200600  73.4113073  28.0652404  66.2939739
  73.4895849  27.3844671  65.6256533  72.6689482  27.7890396  66.8314171
  14.1765440  30.9509063   7.3952281  13.8766050  31.8086743   7.6960647
  15.0521576  30.8581471   7.7706313  36.3407278  45.8047247  18.0169487
  36.6036868  45.0495148  17.4908841  36.2612033  45.4608297  18.9066911
  64.9674368  52.2621965  65.1535416  64.6710587  51.8627644  64.3357086
  65.1707029  51.5199423  65.7227278   8.0620658  70.1977158   1.2578888
   8.2377821  70.7835102   0.5215491   7.2273022  69.7830105   1.0401185
   8.3384401  21.8666577  62.6697493   8.6793309  22.7245879  62.9226923
   8.6185592  21.2807941  63.3729792  48.2348442  59.7848606  10.8292949
  47.5050783  59.6718693  11.4383137  48.6428022  60.6091213  11.0946226
  48.5547400  75.6625748   3.7891787  47.9346228  76.3319826   3.5000730
  48.8676643  75.2600908   2.9790446  79.0031910   8.5896748  65.0837421
  78.7303162   8.4486794  65.9903240  78.4193182   8.0329967  64.5685387
  10.5473006  32.7682066  56.0432625  10.6127238  33.7184238  55.9482002
  11.4143014  32.4974585  56.3453197  60.0158834  29.7348452  57.2568941
  59.8342228  29.6948624  56.3179398  60.7589006  29.1445947  57.3824358
  14.0875316  63.4705305  11.5812635  14.4545424  64.1670942  12.1256340
  13.4509039  63.9145851  11.0211265  71.8322229  35.5894780  62.6490259
  72.6201868  35.8614802  62.1785355  72.1504068  34.9855542  63.3200455
   5.7189184  47.2016239  66.4866781   6.0013068  47.2494793  65.5733299
   5.9518826  48.0541229  66.8543816  67.5138712  35.3392458  57.6956034
  66.8203211  34.9615908  57.1546841  67.9897404  35.9211612  57.1030188
  69.3655252  46.5346479  57.3562717  70.2633476  46.8659067  57.3767233
  69.4617844  45.5882072  57.2503567  81.2986755  50.1704264  59.3440771
  80.5691433  49.6058083  59.5994711  81.3474560  50.0828552  58.3921385
  49.2632341  24.6733570  45.1021862  48.3107328  24.6907210  45.0090408
  49.4222021  24.0659404  45.8246851  15.0673020  15.2270734  65.2674580
  15.8617711  15.4261374  65.7628632  15.3833926  14.9678195  64.4019508
  79.3843412  20.5716491  60.1620245  79.1344929  20.1209688  59.3553638
  80.2777195  20.8747983  60.0001574  37.5030041  74.5377779   0.2112434
  37.1510863  75.4062033   0.4067639  38.3652544  74.5296383   0.6268041
  74.5718479  43.5937834  45.9085369  73.9656115  44.2508888  45.5665970
  75.4402161  43.9335346  45.6923580  13.1266832  49.2556381  16.9665062
  14.0056026  49.4987392  17.2574282  12.6004398  50.0419950  17.1112287
  72.8243828  16.4247859  51.2158823  72.8159761  16.9045651  52.0441198
  73.7380219  16.1642087  51.0992956  77.1984434  12.0071387  60.3027582
  76.2851429  11.8618405  60.0557709  77.4767542  11.1772275  60.6900883
   6.6334659  31.1243129  31.6486907   6.0786515  30.3757763  31.4293623
   6.4069659  31.3329124  32.5550103  69.5867538  75.9498739   2.0843719
  69.1532373  75.8297396   1.2394679  70.2570438  75.2669811   2.1088932
   0.8616756  31.6794491  33.3292890   1.0797889  32.2998548  34.0248156
  -0.0952259  31.6716623  33.3066916  69.8555470  36.4036989  64.5118618
  69.5966578  37.2821903  64.2335463  70.5223227  36.1385250  63.8783598
  76.5536976  27.3772573  62.1339989  77.2505856  26.8150020  61.7956972
  76.3404512  27.9594755  61.4047670  77.0142603  39.2512846  64.4465923
  77.3566389  39.6035719  65.2681160  77.4751186  39.7410464  63.7654352
  50.5103397  71.2693357  11.1417234  50.7431746  72.0422316  10.6272840
  50.3143501  70.5972576  10.4889369  18.1790924  20.0660324  63.1650114
  18.7563825  20.2482653  63.9064693  18.4358442  20.7039237  62.4991274
   2.9713449  28.2375669  38.7717843   2.8090426  27.9776645  37.8649545
   3.1625679  27.4167752  39.2256188  75.6092024  21.7703581  53.4651899
  74.8295355  22.3075986  53.3247662  75.2865696  20.8694553  53.4424448
   9.2535400  56.8588257  14.7441947  10.2080274  56.8953943  14.8062336
   8.9470536  57.1118641  15.6149817  17.0053089  72.3845911  10.0451231
  16.7634559  73.2029343   9.6114743  16.5989053  72.4425411  10.9098256
  63.7768078  33.8940096  50.5144596  64.3172598  34.2993379  49.8363352
  62.9925203  34.4412851  50.5545998  57.8552723  36.0151863  51.9139576
  56.9171429  35.8251190  51.9105959  58.1240606  35.8786535  52.8224421
   3.5563943  20.7239199  61.4849710   4.0408760  20.2707291  60.7949543
   4.2258853  21.2051010  61.9712639  76.2909555  65.5828571  42.1983528
  75.8531094  66.0394812  41.4800119  75.9715652  66.0180473  42.9888153
   6.9769418  28.2160830  60.5417585   6.2203622  28.0239725  59.9877644
   7.4239159  28.9354491  60.0957155  80.0745869  54.6467638  31.4985776
  80.3199196  55.1671743  30.7335806  79.5399666  55.2377319  32.0288348
   8.3325452  36.6843557  48.6839771   7.5614262  36.6204834  48.1204844
   8.8421774  35.8995843  48.4823799  34.7649360  74.8339415   5.3034717
  34.0432143  74.8741341   5.9309542  34.4585824  75.3431988   4.5531172
  70.0179195  33.2838893  40.6635094  70.9022379  32.9385233  40.7857227
  69.8425913  33.7814164  41.4622355  53.4375381   0.2987817   6.3401723
  53.9203310   0.7490295   7.0332968  52.6087713   0.0490999   6.7488712
  79.7561455  13.7469292  42.3931932  80.5713367  13.8213384  42.8893328
  80.0372314  13.5635614  41.4967537  66.9543600  20.2345371  57.4553299
  67.2093678  20.6423283  56.6277361  66.1327457  19.7849727  57.2576666
  80.1412868  28.5152698  46.8397522  79.5581293  29.2670798  46.9443703
  81.0121536  28.8997388  46.7397976  59.7648287   1.4096782   8.6201733
  59.5853472   0.6708646   9.2016995  60.6750202   1.6427976   8.8030261
  19.7015774  76.2521648   7.0726502  19.7608554  75.7852650   6.2391496
  19.2505479  77.0687532   6.8582064  20.9844708  69.6045256   8.0882239
  20.4295397  69.0107965   7.5824904  20.3864861  70.0207949   8.7090051
  38.1156802  66.2481213   4.2348257  37.7367043  66.8045378   4.9152738
  38.7786722  66.7980814   3.8174370  18.6552250  56.3129616  24.6983337
  19.2789078  55.5869579  24.7115612  18.5780740  56.5456104  23.7730479
  41.4378548  75.7508659  12.3278368  41.7307138  75.6705666  13.2355917
  42.2160530  76.0369825  11.8495274  34.4294477   0.0996904   5.4975468
  33.8955092  -0.3405648   6.1588460  34.3278122   1.0319348   5.6894386
  19.3793881  63.5191345  64.8983002  18.5576594  63.9034653  64.5928860
  20.0472975  63.8948727  64.3247604   4.4989997  61.1358833  24.2810535
   4.5508367  61.0121632  23.3332992   4.0474093  61.9729280  24.3889856
  67.3294067  37.8550005  52.3730373  66.9478893  37.0481443  52.7189541
  67.3992252  38.4321451  53.1334734  39.4931626  51.1813021  25.4460549
  38.5788798  51.1499834  25.7277226  39.4501662  51.1590767  24.4900799
  74.4999933  35.6871414  61.0929680  75.2525902  36.0129189  61.5866280
  74.6091604  34.7361922  61.0896826  73.5222197  19.5776033  62.7592278
  72.8841305  18.9102077  62.5069237  73.7951374  19.3265796  63.6416864
  76.2203741  22.1227884  57.2107220  75.5664253  21.5151167  57.5561523
  75.7073545  22.8172350  56.7974615  72.5097513  27.7470350  58.3400869
  72.7158594  28.0659890  59.2187357  71.6085243  28.0311513  58.1874323
  60.1233196  32.9768586  52.2169733  59.2503834  33.2704091  51.9561195
  60.0995111  32.0264173  52.1059513  70.8189106  60.1372147  49.8654652
  70.4155111  61.0016823  49.9441814  71.6588545  60.2228975  50.3164482
  70.7744932  60.5026484  16.7503572  70.8940411  61.3285303  16.2814641
  71.3828135  59.8967505  16.3271964  43.3348703  41.2786913   3.7805501
  42.5398016  41.4369965   4.2895073  43.1064987  41.5459108   2.8902295
  60.2684307  13.4940946   5.2760220  60.8668280  12.7738309   5.4744464
  60.6939936  14.2677629   5.6455714   4.1369724  67.1151829   6.8915671
   4.4629645  67.8012466   6.3090926   4.8628244  66.9460678   7.4922091
  57.6884794  54.7611761   5.2138895  58.4897470  54.2401695   5.2663863
  57.5552464  55.0860357   6.1043650   4.0130973  43.9733791   0.8578058
   4.2695570  44.5860577   0.1685414   4.8411316  43.6818981   1.2394206
  12.3803496  22.7241111  61.0628033  12.6024926  21.8041945  61.2064648
  13.2244456  23.1753278  61.0510588   5.1225317  48.5395432  60.9377909
   4.6385163  49.1861534  60.4241180   5.9729213  48.9487314  61.0978985
   2.7411821  47.5192976  65.3184366   3.5129988  47.0578861  65.6465101
   2.6321095  47.1974611  64.4235849  40.9627008  73.6067963  10.3829145
  40.9872961  74.5267105  10.6463313  40.1874352  73.5378504   9.8257416
   0.8413765  23.3219767  35.5708861   0.4892487  22.4522758  35.7602525
   0.7383700  23.4212136  34.6244335  65.9926462  57.5930834  60.4694986
  65.5830908  58.3895540  60.8073330  66.6139030  57.3357534  61.1507130
  57.5683689  16.1120474  11.8280125  57.0430136  16.5224874  11.1411560
  58.2964134  15.7027829  11.3603723  77.7655077  16.3698792  56.8377686
  76.9900131  16.0149348  57.2723341  78.3220625  15.6071711  56.6804314
  16.6870618  35.7043004  16.0214448  17.2200668  36.2895775  16.5595782
  15.8101451  36.0871363  16.0475993  27.7278709  65.8399057   2.6880983
  27.9990649  64.9599648   2.9496017  27.3965597  66.2376213   3.4932625
  66.2820768  47.2181129  65.1229095  65.4457617  47.1743011  64.6593475
  66.8054247  46.5141344  64.7398329  50.9121037   1.3027284   0.1407398
  51.1974144   2.1612844  -0.1718443  51.6694450   0.9556352   0.6121108
  75.4400921  15.6707692  51.2677908  75.9573364  16.3275230  51.7340183
  75.8702469  14.8397768  51.4694214  64.6115637  31.6658473  46.1825562
  63.9003420  31.2826848  45.6691551  64.5072699  32.6104975  46.0685778
  11.2870979  55.5473661   8.5417187  10.7113969  55.0405884   7.9690278
  10.9213376  56.4318085   8.5270727  81.5776825  26.7379951  43.9431524
  80.6700897  26.7000842  44.2449188  81.6872120  27.6342607  43.6254406
   7.1236461  11.8482363  48.5904598   6.5961677  11.7360914  47.7996254
   6.8614686  11.1234069  49.1580105   1.9038884  59.6841335  32.3484159
   2.2353816  58.9516115  31.8290353   1.4902428  59.2720985  33.1069398
  76.7580986  47.1571302  52.7641964  76.7525721  47.9017210  52.1627045
  77.6838446  46.9333172  52.8597832  61.5435076  15.8187366   5.9353703
  61.4960766  16.7709994   5.8506501  62.1599817  15.6725216   6.6528726
  58.0695772  24.9697614  66.2901354  57.3341036  25.5823207  66.2992764
  57.6622677  24.1055751  66.3494158  78.5124350  45.8794451  56.4726448
  78.7855625  46.7881918  56.5983677  77.5648355  45.9293556  56.3469744
   1.1741010  38.5017157  40.3711462   1.2122966  37.6111698  40.7200050
   2.0015952  38.6111069  39.9026179  61.8010998  11.0000587   5.8995658
  61.6329193  10.8805823   4.9648616  61.9568253  10.1152706   6.2299174
  75.9226942  54.3807173  12.6775384  76.6243744  54.7504807  12.1416759
  75.6606579  55.0966835  13.2562959  25.6704974  61.9212914   0.2136546
  24.8924088  62.4706316   0.1186027  25.9792662  62.0951509   1.1028485
  54.0313387  73.6424303   5.7260638  54.7220373  72.9987288   5.8835870
  54.2215061  73.9893484   4.8544478  78.1606245  71.5525818   7.5687510
  78.1174231  70.6454134   7.8711003  79.0520334  71.8322802   7.7770692
  74.4700623  34.5810962  54.9793768  74.9872208  35.3783083  55.0944185
  73.7723970  34.6520853  55.6308794  47.6766205  15.0584328  16.9106889
  46.8498755  14.9196053  17.3726928  48.3471155  14.9720609  17.5883400
   0.5177576  37.8028107  56.7012930   0.1140819  36.9954252  57.0197392
   1.0502852  37.5263548  55.9554911  80.7839775  72.0063448   2.9207021
  81.6272163  71.5687323   3.0375957  80.9849548  72.7748442   2.3866114
  70.8524609  73.4408617  50.5612040  70.1620817  73.0573368  51.1020613
  71.2351704  74.1247606  51.1107922  66.5065384  32.5045633   5.2887082
  65.7327223  32.9016471   4.8890013  66.2785053  32.4141741   6.2139446
  72.0697546  40.3883791  61.1491823  72.4461269  39.8892260  61.8740416
  72.5296450  40.0677729  60.3733301  48.7502956  70.0774240   8.9067382
  49.0901899  69.2343664   9.2066693  47.8205824  70.0551605   9.1333830
   5.4903114  59.2725134  57.7655363   4.7113281  59.4754314  57.2476149
   6.1925566  59.7704840  57.3470736  19.8958671  40.5120134  62.8149128
  19.2825019  41.0966730  63.2600975  19.4513416  39.6644163  62.8006220
  68.9350605  48.6111546  64.7300673  68.7182426  47.7189159  65.0005102
  68.3527613  48.7854815  63.9906311  62.0900059  55.7654810  48.8861513
  61.2476063  56.0177422  48.5080528  62.1689034  54.8312140  48.6933899
  11.6724050  63.8089895  14.5613062  11.6828823  64.1120481  15.4692030
  10.7430899  63.7355042  14.3440402  80.1050758  73.5601234  52.6639700
  80.6190205  72.8413725  53.0320692  80.6961918  74.3126869  52.6852894
  64.7428465   4.0371901  15.5517972  64.8313618   4.1252926  16.5008140
  65.4333973   4.5951834  15.1940095  41.0331249  74.7100210  19.1104734
  41.3323593  75.1466942  19.9079752  40.4181242  75.3280067  18.7153792
  55.1538277  31.2271595  63.1790304  55.0936127  32.1474528  62.9227734
  55.6580877  30.8156061  62.4771881  69.1786337  15.3687143  49.0442991
  68.5904741  15.5083323  48.3021307  69.7537613  14.6569419  48.7635231
  80.7696724  16.7103851   4.8828700  80.4152775  17.2418153   5.5957651
  81.7066860  16.9059300   4.8813158   2.9933688  61.7455530  65.1492071
   2.3275739  62.3631048  64.8465872   3.3408913  62.1407795  65.9487438
  65.9350586  42.0159149  50.9703302  66.2764454  42.8705263  50.7070303
  65.1310205  42.2164440  51.4494371  70.7832527  16.1303234  23.5615277
  70.3483057  16.7735922  24.1212201  71.0115862  15.4134405  24.1532826
  61.8893528   4.5452636  10.4967964  61.3217878   4.3990311   9.7400153
  61.3559961   4.2891377  11.2492323  11.4855623  50.8506060  61.8934536
  11.0603750  51.4861059  61.3176155  12.4215364  50.9705019  61.7327976
  11.6413534  25.7868195  66.6511774  11.6193509  24.8326278  66.5786171
  10.9149289  25.9992743  67.2371864  77.7124548  14.5567393  52.1840620
  77.8643608  14.0972209  53.0098963  78.2277536  15.3599489  52.2585964
   2.3174106  44.8260593  61.4482498   2.4723706  45.1973057  60.5796909
   3.0856133  45.0820827  61.9586897  62.2996712   6.5741313  50.1067638
  62.6916075   7.0242107  50.8551264  61.4895916   6.1979109  50.4509449
  56.9218111   9.4038016  53.5314131  56.0649157   9.4609934  53.9541340
  57.1393967  10.3087020  53.3077097   3.9257574  23.8562584  56.2561321
   4.7427148  24.3206501  56.4382124   3.3146334  24.5426250  55.9884357
  64.3644714  19.3878913  46.8175316  64.4446230  18.7446451  46.1132288
  65.1763487  19.8930585  46.7740679  61.0992002  11.7767000  37.5588512
  60.2627945  11.9231677  37.1170259  61.4460278  10.9801161  37.1571112
  64.9589491  15.8618689  49.2356110  65.1364660  16.2602723  48.3835602
  64.7947741  14.9395323  49.0392113  68.3883286   9.3973422  61.0191584
  68.1619120   8.9174896  60.2224731  69.0251350  10.0516772  60.7318354
  14.2314088   9.2911768  36.7171669  15.0143516   9.7948110  36.4944911
  14.5064676   8.3770818  36.6464210  81.0906506  11.9124854  62.7816629
  80.8584499  11.1733997  62.2194672  80.2993393  12.0825934  63.2926607
  58.7969732  66.6306400  64.3304968  58.2979631  66.6944599  65.1448393
  59.5696068  66.1155605  64.5627880  76.3466978   4.1325611  47.7081490
  77.2436476   4.3278101  47.4368668  75.9697866   4.9861896  47.9214239
  25.1129508  44.0191507  10.9225023  24.7413921  44.6755314  10.3331435
  24.6777034  43.2028198  10.6767404   4.5678350  38.3219123  20.1763344
   5.4378396  38.1099081  19.8381364   4.1142383  37.4799061  20.2151775
  65.0144529  30.2479243  65.7675314  64.2698240  29.6472931  65.7357645
  65.5359650  29.9437976  66.5103388  77.2962952   5.9657311  63.8791990
  77.2470236   6.2538201  62.9677105  76.4041662   5.6921476  64.0924788
  74.4817352  13.1168199  56.6754103  74.3780518  14.0598595  56.5482855
  75.2849817  12.8983271  56.2028742  54.7457695   0.4112807   9.2824209
  54.4386387  -0.0864925  10.0401306  53.9530993   0.8033903   8.9161426
  70.1893854  29.8983693  54.2729092  69.5329189  29.3347073  54.6822643
  71.0005140  29.7003555  54.7409821  56.1846447   8.6015713  64.2781258
  55.2595997   8.5232061  64.0449142  56.3411236   7.8771669  64.8839188
   6.1412925  29.3815327  28.7378478   6.5232199  29.1498661  27.8912687
   6.2749350  30.3265810  28.8103342  64.4918776  16.7829096  54.1833973
  63.6658192  16.9790924  54.6254110  64.2305422  16.3864386  53.3522892
   4.3278232  64.5134354  19.7335303   5.0437838  63.8805771  19.7894335
   4.6830991  65.2313328  19.2094803  33.7794852  75.2946472  58.8518572
  33.2685471  75.6365395  58.1181812  34.5506740  75.8603144  58.8908815
  22.4975371  53.9957714   8.3891982  22.9164433  53.1617737   8.1766194
  21.8164134  54.0979815   7.7244741  79.9251986  59.0986109   2.7799729
  79.9946976  58.9285612   3.7193793  79.0776491  58.7294197   2.5317979
  12.7690387  72.1511793   4.4090390  11.9097459  71.7323732   4.4585425
  13.1520772  71.8168259   3.5980380  80.6237411  18.6963308  49.9372959
  80.0800037  19.1611266  49.3012571  81.2660313  18.2265270  49.4053507
  81.5945148  66.1920834  12.7187312  81.4737988  66.0541868  13.6582220
  80.9597492  65.6057119  12.3070729  72.0253515  10.4375982  28.3833075
  72.4792767  10.7953703  27.6202989  72.7268744  10.1242280  28.9541817
  69.5610189   0.0062415  46.3007736  70.4282951   0.2355159  45.9668636
  69.0620995   0.8216379  46.2513828  61.4154053  10.6899965  32.5903177
  61.4458561  10.5379117  33.5348678  61.7598104   9.8835164  32.2066402
  69.0863037  19.2495322  58.9857244  68.7989187  19.7778189  58.2410431
  68.2798815  18.8719654  59.3369484  23.3714819  66.3448095   6.2075871
  23.4425759  65.7581472   5.4545891  22.9074144  67.1113586   5.8710188
  65.8557034  30.1821351  48.1988907  66.6003466  29.9270868  47.6541996
  65.3111792  30.7196212  47.6237059  73.0328178  11.8759239  32.5508904
  72.4941969  12.4867976  32.0479417  72.4042606  11.3720524  33.0678630
  73.8059473  16.2303662  31.4165425  73.9762020  15.9962499  32.3289204
  74.1797495  15.5090213  30.9104133  57.7895641  18.9687681  29.6143317
  56.9067001  18.6169720  29.7284675  58.2231617  18.8039565  30.4516244
  65.6012392   9.2896134  52.3787928  64.7605753   9.4247061  52.8161335
  66.1991405   9.8953485  52.8167725  13.4442282  50.1141071  48.7186003
  12.7910447  50.0902605  48.0193043  13.7432694  49.2082930  48.7980127
   2.3726590  38.6167645  58.7734604   1.4734730  38.4703398  58.4797668
   2.2911367  38.8097382  59.7074556  49.6283150  71.5828609  47.9276371
  49.7825861  71.9413280  47.0536041  49.1053963  72.2505379  48.3714771
  14.6633232  25.0298309  65.9593821  14.5518529  25.4669833  65.1151657
  14.0515339  24.2942142  65.9308147   2.9528001  16.0213506  50.3756571
   2.7202353  16.6293037  51.0774660   3.0736876  16.5782785  49.6065998
   9.2817950  14.3368685  55.3058290   8.8123304  13.9009249  54.5946407
   8.5924619  14.6474779  55.8928299  53.0005884  68.8626003  37.3881507
  52.5250483  68.9164495  36.5591788  53.4114170  69.7217321  37.4848485
  74.1201878  19.4212151  56.0304546  74.3049288  19.2924798  55.1001167
  73.3702421  18.8530648  56.2065792  63.8545609  38.1523752  54.0515327
  63.1911755  37.5061321  53.8096285  64.1618347  37.8693342  54.9127531
  18.4700036  18.7463999  48.4314060  19.0074039  17.9698563  48.2751560
  17.7117491  18.6321676  47.8584909  81.2650204  31.4517069  59.6418142
  81.8637371  30.8991861  59.1393375  81.6777611  31.5318871  60.5017233
  63.2610846   2.5803807  33.2503295  62.8606367   1.7311749  33.4366751
  63.7526798   2.7926427  34.0437436  62.8861618  72.2988749  17.4842465
  62.6766968  73.1597090  17.8466249  63.8310766  72.2100830  17.6087034
  55.4257393  66.9348955  26.0740948  55.8891153  66.0974169  26.0861063
  54.6292686  66.7607641  25.5725551  28.9290619   1.4469081   7.7257341
  29.6546888   1.3169672   8.3363163  28.1616354   1.1148816   8.1916189
  65.4864550  45.0450706  56.0455847  65.9166241  44.4050598  56.6126585
  64.6494246  45.2213240  56.4751768  13.5984409  18.4227192  25.8193827
  12.9444337  17.7446342  25.9888101  13.4238398  18.7048829  24.9215341
  65.0424004   5.1929742   4.7867253  64.9026108   6.0713911   5.1403826
  64.4411659   4.6368343   5.2821589  75.4766464  13.2735085  35.1298118
  75.0968885  13.7945330  34.4223189  75.7982588  12.4819386  34.6982861
  11.2025630  11.9022334  64.3795919  11.2212873  11.1947238  65.0240374
  11.5054643  12.6723933  64.8605680  65.9787035   4.0252268  35.3241444
  66.8462706   3.6912519  35.0960684  65.7101345   3.4994760  36.0775948
  15.1366794   7.2092617   5.0905085  15.0318027   6.7382097   5.9171540
  14.3051815   7.6675600   4.9688312  27.7336645  56.3006783  62.9075050
  27.5327754  55.8655071  63.7360573  27.4262595  57.1991110  63.0281401
  30.6854081   1.6645800   9.9540848  30.1339674   2.3034100  10.4057932
  31.5396023   2.0911451   9.8860645  73.7354231   9.2156792  20.9899306
  73.7932444  10.1710880  20.9808135  73.3487892   9.0072310  21.8403983
  72.4064684  68.3783865  35.2170658  72.8886032  68.2740641  36.0373664
  72.0326519  67.5136995  35.0473261  54.1413546  60.8649874  20.3950524
  54.1289043  61.4542007  19.6407950  53.5533285  61.2752485  21.0292006
   3.5532731  11.9029284   3.4095815   4.2374799  11.5819919   2.8221351
   3.0466771  11.1229539   3.6359277  31.9187117   2.1194407   4.9632737
  32.3300743   2.0284098   4.1037822  32.6493096   2.2654715   5.5642188
  72.0327234  43.4778404   2.7280152  71.5495539  43.9966822   2.0849097
  72.9520607  43.6864567   2.5621110  36.3744161  22.2774734  66.4522642
  36.8322989  21.5307608  66.0662627  36.5453097  22.2039165  67.3912090
  80.2470970   8.6509556   8.6071718  80.6504250   7.9636365   8.0769318
  80.1815128   9.4015127   8.0167532  66.6423893  12.6387835   8.8027060
  65.9160423  12.1667564   8.3954692  67.1632528  11.9569361   9.2269927
  33.1794620   0.7267351  18.5926604  33.7589335   1.4879900  18.5620940
  33.4416914   0.2577707  19.3848348  16.6665697  12.6425934  27.7266932
  16.1946392  12.2093463  27.0154905  17.4260640  12.0823252  27.8863764
  18.9591563  70.5225754  61.5402365  18.7841654  70.0115442  62.3304653
  18.1878638  70.3849602  60.9903288  71.4139986  36.3514400   2.5530234
  71.0310030  35.4987764   2.3468411  71.6179895  36.3028502   3.4869710
   7.5057197  25.2816272  39.0893245   7.9848111  24.9076128  38.3498549
   6.9004607  24.5900750  39.3569994  73.1043911  13.7914741  12.7854407
  72.9891872  12.8724420  13.0269754  74.0489244  13.9368320  12.8398633
  28.2261157  59.0852308  63.5605669  28.9842200  58.5359049  63.3611965
  28.4914112  59.5895815  64.3296480  55.2939177  13.5505843  18.0391765
  55.1866770  12.7145398  17.5855696  55.2594423  13.3248782  18.9687467
  35.3655648  28.3258629  61.5483761  34.7590470  27.6480889  61.2500668
  34.8004127  29.0371013  61.8500042  31.0027957  66.9529200  31.1675644
  31.9014430  66.6237211  31.1847043  30.5029249  66.2621450  30.7326102
  14.3561375  19.7186351  52.6879978  14.4018054  18.7698340  52.8059912
  14.6133053  19.8593259  51.7767906   2.6441577  33.6574864  12.4932337
   3.2118210  32.8910995  12.5747323   1.7571130  33.3091235  12.5828326
  18.5947096  23.7684178  21.8274713  17.6715565  24.0105081  21.9010544
  18.5952890  22.8119826  21.8657565  14.1762245  24.5172095  10.1952755
  13.6001205  24.0800524  10.8223557  14.9606228  24.7320199  10.7000601
  72.8304100  75.9118700  34.7538805  73.1093168  76.6442299  34.2042542
  72.9431200  75.1397896  34.1994262  52.7729177  63.6783743  31.2586713
  52.3100233  64.4627571  30.9642029  52.4882507  63.5582113  32.1646261
  33.2047343  15.3780317  16.8985510  32.4879837  15.4314780  17.5307262
  33.8296747  14.7714567  17.2957277  67.4465990  73.6043549  38.4228516
  68.1018162  72.9538441  38.1703544  66.9519138  73.7700272  37.6203108
   4.2387617  39.0182376   5.2255476   4.6622103  38.8865447   6.0738283
   4.0577510  38.1334710   4.9082834  72.9074049  35.7549071   9.2317629
  73.1496239  36.4835763   8.6602736  72.2836590  36.1335206   9.8513031
   7.2118407  25.9124112  18.7192619   7.4601918  25.8221245  19.6392632
   7.1709472  26.8576193  18.5738659  81.6923428  12.1436989  17.2097957
  81.2626553  12.8068817  16.6696262  81.3196278  12.2675073  18.0827129
  11.1081159  38.9646053   0.9357678  10.7068551  38.6106801   0.1420684
  11.7012453  38.2744145   1.2325262  18.9156425   4.4161552   0.2233808
  19.2538166   3.9435172   0.9839618  17.9718590   4.4686511   0.3742052
   8.0532670  36.7316985  24.6954489   7.7073580  36.5149426  23.8296580
   7.9309916  37.6779485  24.7722030  43.3504248  59.6390676   0.6256372
  44.2476511  59.3374634   0.4833244  43.4487915  60.5039072   1.0238899
   6.5936619  20.1585484  43.8265562   6.4813387  19.3653357  43.3026981
   6.8538141  20.8283710  43.1941891  68.7027073  66.4862967  22.4259925
  68.2958794  66.8174982  21.6253495  69.4991016  67.0082712  22.5235963
   7.3978108  34.8025513   5.7536864   8.0523562  34.1556025   6.0168570
   6.6026068  34.5412731   6.2180293  15.9632778  36.8139195  47.6499939
  16.5158892  36.6297865  48.4095621  15.9401655  35.9890056  47.1650028
  20.2899885  17.1697724  50.5375004  19.5501769  17.3538721  51.1163092
  20.2738166  17.8791964  49.8950911   8.2177496  30.6797075  65.4228544
   7.9156595  30.1417589  64.6910143   8.0273598  31.5784526  65.1540756
  78.7648916   4.1913462  19.5545554  78.4562445   3.6786902  18.8074601
  77.9714966   4.3937024  20.0503445  62.0670462  59.6188307  12.5545132
  61.7801046  60.1322079  13.3097196  62.5043774  60.2528000  11.9861376
  59.1239882  70.3193188  25.2344394  59.7118521  70.4668665  24.4935775
  59.0245676  69.3681860  25.2755785  34.3981314   2.7072394   6.3470083
  34.7134137   2.9124942   7.2271782  34.8073673   3.3662674   5.7862592
  56.6858721  60.0210810  27.8171873  57.1569490  60.5270958  28.4791994
  57.3268223  59.8839283  27.1196175  58.4193516  66.5940762   1.8610561
  57.9810762  66.1631012   1.1272918  57.8662300  67.3494816   2.0601904
  52.0257807  62.9711580   9.4895440  51.8840742  63.9174986   9.4651014
  52.9768324  62.8724623   9.5341551  59.6811104  13.4549165  13.1276751
  59.1171598  13.2118320  12.3934388  60.2990198  14.0848708  12.7567577
  11.0582864  18.1566966  62.5077534  11.8782699  17.7304816  62.7571535
  11.2328124  18.5230923  61.6408491  44.4608355  54.1546631  11.9870365
  45.2011776  54.5617723  12.4369109  43.8144636  54.8560429  11.9064367
  44.9844313  73.1517506   8.1746078  44.2436504  72.5729656   7.9943711
  45.6437588  72.9060841   7.5256300  29.8914599   7.1091115  57.9477358
  29.5523071   6.9360149  58.8259411  30.1405334   6.2476075  57.6130629
  29.9687314  11.9393122  27.6690817  30.2527833  12.1093750  28.5672045
  29.9258137  12.8052390  27.2634220  53.2228279  68.3950949   7.1102697
  53.0023336  67.8867292   6.3297731  54.1586208  68.5759354   7.0218515
  21.2975764  15.8193040  65.2636051  20.6252646  16.4422655  64.9876595
  21.9346976  15.8224487  64.5492554  26.8022776  47.5245619   4.7359973
  27.2054887  47.8799438   3.9439380  27.3234844  47.8859472   5.4529202
   1.9822468  14.9505603   6.7144698   1.6378720  15.4045475   5.9453571
   1.2582627  14.3992126   7.0112771  70.4608440  62.8465557   6.7727339
  70.4516602  62.1715832   6.0940892  71.1938190  63.4146643   6.5355957
  21.1452150   5.3051406  15.9982646  20.4285336   5.2509862  16.6304564
  20.7998466   5.8495158  15.2907276  28.2804513  62.9972506  64.5902014
  28.1936693  63.2454586  65.5105782  29.1135550  62.5279570  64.5462179
  17.3578763  58.2777596  53.5652399  17.0150912  58.0193615  54.4207859
  18.2688761  57.9840899  53.5735750  73.5060453  75.1504230   4.0741989
  74.3195391  74.6745491   3.9068392  73.7824678  75.9428501   4.5345041
  77.1265936  76.6385031  20.4813933  76.6919136  76.4480448  21.3126636
  77.8265524  77.2494841  20.7115960  51.6662359  76.9104958   5.0949746
  52.3034334  76.7306519   5.7862544  50.8152485  76.7931890   5.5172181
  50.6391573  57.9337788   9.1176397  49.9097300  58.4867001   8.8375604
  51.1737680  58.5041904   9.6699595  63.7863493  67.4091196   6.5917796
  64.1908407  68.2755280   6.6359901  63.1075096  67.4270105   7.2663850
  35.2924490  10.2672076  31.5014482  34.5827031  10.2600980  30.8592343
  35.1511359  11.0684311  32.0057344  24.7588611  48.3110809  59.9020672
  24.9302244  49.2488956  59.9879026  25.1696420  48.0674839  59.0725183
  52.0720911  53.1493998  17.4406314  52.0063972  54.1022205  17.5042772
  51.2656975  52.8263378  17.8426242  19.2199957   5.5746239  18.2740426
  19.2084932   6.4872450  18.5625243  18.5563600   5.5326921  17.5855219
   6.8251699  10.7573020  20.7685804   7.3069793  10.7422507  21.5955400
   6.3604963   9.9207383  20.7468534  56.9073296  65.7385111   4.2317802
  56.8155098  66.6149473   4.6054971  57.4341774  65.8683634   3.4432369
   5.9537947  22.4021530  15.4989243   5.4614449  21.6188407  15.2534711
   5.6396377  22.6170921  16.3771820  57.9997683  71.1311769  14.5660996
  57.1401834  71.4215183  14.2610574  57.9970360  70.1845360  14.4243383
   7.0960301  25.4990172  64.9842548   6.7016524  25.3810573  65.8484221
   6.3738108  25.7940078  64.4296265  64.6049595  71.7834997  29.5836377
  64.1280937  72.6125574  29.6223044  64.6272373  71.4774942  30.4903316
  13.5000372  65.5514145  21.9855022  12.7962923  65.0888681  22.4405003
  14.2302227  65.5449057  22.6043868  62.9202414  31.2097120  52.6473045
  62.5774050  30.8782625  51.8173409  62.6258850  30.5735826  53.2991648
  56.6285086  58.9409542   6.3267070  55.8990622  58.5289478   5.8636779
  57.3924637  58.7604094   5.7789773   9.9361879  17.5281334  38.2588053
   9.7788781  18.4691906  38.3355856  10.7916248  17.4621356  37.8344178
  10.8419263  13.0252874  26.3147473  10.9411383  13.6020219  27.0722198
  11.6859198  13.0724168  25.8656549  63.1729794  42.2372913  65.6722736
  64.0585899  42.5651598  65.8285713  62.6044559  42.9840469  65.8603239
  58.2202387  71.3442802  22.4822903  59.0957069  71.6624117  22.7027059
  57.6316595  71.8641567  23.0295897  27.1714878  41.4928913  64.0560818
  26.8430233  40.7008076  64.4814682  28.0908585  41.3015223  63.8707018
  19.2122960  65.4144430  30.7190108  19.2096162  64.9557638  31.5591526
  18.2867610  65.5582333  30.5216765  44.3240070  33.7196827  63.2366467
  44.4277143  34.0711784  64.1209173  45.2173185  33.6518502  62.8995752
  71.8519068  18.8190484  27.2136116  72.1015739  18.0315208  27.6970339
  70.8947659  18.8104260  27.2196436  67.8272963  43.9126682  25.4463315
  67.7294159  44.4771147  24.6794844  66.9831800  43.9685631  25.8941865
   6.2781829  74.9713087  23.4412551   6.5111572  74.0606689  23.6220789
   5.8860368  75.2845860  24.2563081  80.6883907   2.7154034  48.0549383
  81.5705967   2.9163796  48.3672667  80.3801632   2.0216325  48.6379528
   4.0519166  26.4860988   1.6503495   3.4275943  26.6381049   2.3598200
   4.7598928  27.1084070   1.8168832  12.8577578  44.9385977  17.0795071
  12.3443019  45.7168865  17.2959960  12.2062862  44.2477036  16.9591880
  29.4094324  39.0766454  64.7078276  29.7550392  39.8640943  65.1281977
  28.7418556  38.7550354  65.3137445   7.1838999  15.0322986   5.9957117
   6.5991735  14.9932253   6.7525476   6.6083235  15.2364445   5.2586448
   6.8976277   6.3016629  23.6045098   7.0065981   6.3625830  22.6554871
   7.3421544   5.4887551  23.8449454  16.8543601  38.9109874  18.7767935
  16.4891219  39.0437794  17.9020369  16.3461447  38.1862354  19.1410542
  38.6121893  11.8929553   7.5009507  37.7085185  12.2075176   7.5267071
  38.9802194  12.1522343   8.3456755  26.0471344  38.8688254  64.8777628
  25.8348393  38.5755730  65.7638597  26.2380314  38.0628228  64.3980217
  36.5917611  29.4256234  65.3083277  36.0388517  29.5786238  66.0745621
  37.3370433  28.9289331  65.6460905  12.7778721  11.3947129  53.1640577
  12.2569704  11.8762505  52.5213957  12.4716997  11.7181754  54.0113258
  21.1956954  21.5549564  15.5844522  20.9500360  21.9087148  16.4392841
  20.4000640  21.6281128  15.0573373  19.3457830  17.7773702  65.9281683
  20.2527809  17.8702140  65.6366777  19.3850219  17.1273768  66.6297388
  57.2147226  65.4908562  21.5714383  56.8052244  66.3412380  21.7307830
  56.7779255  64.8965931  22.1815944  24.2030644   1.3178015  21.3413954
  24.9236631   1.9034086  21.5738511  23.7722635   1.1257885  22.1743250
  18.0244589  22.4461722  17.6414347  17.9442167  21.5780663  18.0366397
  17.5254607  23.0207205  18.2220614  11.6801345  75.3434038   6.2794596
  10.7922029  75.0367403   6.4632154  11.7041397  75.4518032   5.3287202
   8.4566247   2.8336021   8.2143199   9.3479180   3.0845076   8.4569609
   8.3355653   3.1978813   7.3374635  22.3902464  13.4652293  45.5382109
  21.5022492  13.1459117  45.6986141  22.2970295  14.4164777  45.4865551
  59.7437048  75.4280567  23.4881401  60.5340767  75.8028746  23.0994868
  60.0618649  74.7024632  24.0252805  33.2187057  39.3397713  65.6917858
  32.7991319  39.1767454  64.8470306  33.9869857  39.8697114  65.4793167
  59.1759348  42.5102615  20.2917933  59.8545551  41.9013453  20.0003695
  59.5335197  43.3771610  20.0998187  43.4184074  30.9211898  59.2692327
  42.4901772  30.8145857  59.4772100  43.6631012  31.7488265  59.6832085
  22.2736573  31.0048938  63.5377264  22.1071577  30.9381032  62.5974894
  21.4878631  31.4218998  63.8910866  58.3887625  51.8611670   1.9218372
  57.6178503  51.3799095   2.2223659  59.1271210  51.2947464   2.1459541
  67.9459858  75.9526587   9.3786740  67.7374649  76.4727592  10.1547205
  68.1193876  76.6004848   8.6956769  23.0560231  13.2427502   6.5829390
  22.6897168  12.3588371   6.5555477  23.6019278  13.2515252   7.3691589
  66.3702440  47.7031994   2.7251309  65.7874775  47.6867771   3.4843040
  66.7541218  48.5799742   2.7367863  63.1049395  12.5425065  24.6611261
  63.8184690  12.1397614  24.1662455  62.4272490  11.8674481  24.6966600
   0.8553056  61.9247961  12.6578844   1.2639952  61.9914579  13.5208786
   1.5375271  61.5545940  12.0977437  32.9681778  31.8645549  59.8455715
  32.4236131  32.5546408  60.2243376  32.4179196  31.4692163  59.1694403
  66.9320345  63.1061411   0.7992169  66.3462067  63.8608932   0.7410743
  66.5098143  62.5232744   1.4302707  59.3971443  73.0188513   6.3169372
  58.9418602  72.2915697   6.7412210  58.7778425  73.3391714   5.6611222
  15.5977237   5.9255618  31.0699034  16.4602339   6.2950867  31.2590003
  15.6145835   5.7469392  30.1296687  60.0789785  33.5490823  55.5900478
  60.7660007  34.1499758  55.3016806  60.3593254  33.2644629  56.4598942
  32.4947095  50.5469942  66.2400818  31.5850115  50.8088541  66.0982800
  32.7096391  50.0064993  65.4798841  31.8919992  57.1878672  59.3450022
  31.8151617  56.3346481  58.9179850  32.1470356  56.9833469  60.2446461
  15.2332664   5.5996054  16.6494358  14.4689202   5.9618378  17.0975375
  14.9545336   5.5053151  15.7385850  79.8993778  46.3411617  52.3277187
  80.7144928  46.2411356  51.8359756  80.0359058  45.8286142  53.1245136
  19.7078049   9.9975359  30.1743174  19.4067085   9.8210514  31.0656214
  19.1684818  10.7316303  29.8802614  57.4737930  62.3382092  29.2278528
  56.7388535  62.7540588  29.6785879  58.2500362  62.7624321  29.5935202
  31.3152504   8.8239676  14.9726975  31.9585586   8.9278853  14.2715633
  31.7396545   8.2416314  15.6027746  10.4860759   8.8270348  11.4578462
  10.0595140   9.6838224  11.4717078  11.3992167   9.0175450  11.2431061
   2.6019412   4.8499399  13.7476671   3.2593262   4.6825033  13.0723584
   1.9941092   5.4682666  13.3421493  58.6278105  63.5908031   5.3383207
  59.0530729  63.2140732   4.5679575  57.8444290  64.0195704   4.9937928
  24.4364715   5.4226476   8.9452279  24.8541570   5.1784980   9.7711581
  24.1821456   6.3374162   9.0666753  15.7072675  20.1630497  15.9788418
  15.9289908  19.4420362  15.3895938  16.4630222  20.2371931  16.5615678
  51.2669516  63.2933855   6.2009633  51.2486792  62.3557377   6.3925707
  50.4885578  63.6418724   6.6355830  35.4829192   1.9782159  15.8508551
  35.0491643   2.5931162  16.4424503  34.9684739   2.0181401  15.0446391
  19.1625094  35.4042649  63.8816833  18.7104130  36.2051654  63.6163616
  19.0207243  34.7973132  63.1552315   9.8678792  39.9496865  65.3317499
  10.1822853  40.8510685  65.4016495  10.2959931  39.6068501  64.5472670
  59.4792557  71.4831305  11.1739540  58.6404133  71.4135838  11.6297340
  59.7107840  72.4096632  11.2384415  65.5543804  59.3779755  14.1922200
  65.7698202  58.5557747  14.6324503  65.4315948  60.0058556  14.9042034
  65.3770351  69.7935104  25.3665280  65.4408836  68.9083672  25.7252383
  66.1378098  70.2519703  25.7232714  50.0393724  76.9308758   7.5372928
  49.3770552  77.4361372   7.0658231  49.7868919  76.0178709   7.3998028
  41.1319065  36.9550633  66.5089083  41.7609262  37.3284698  65.8915472
  40.2833271  37.2883511  66.2172508  36.8727732  22.8853893  63.8322353
  36.6523504  22.9775620  64.7591400  37.0485115  23.7790704  63.5378170
  16.3400662  19.9583364  11.3544655  16.2272429  19.7294009  10.4319191
  17.2870195  19.9368739  11.4924920  79.0296841  13.9700246  31.9659901
  79.3563318  13.3631730  31.3017130  78.5465765  14.6308506  31.4698577
  17.2256041   9.8738933   6.5844864  17.3559177   9.4512063   5.7356131
  16.5196395  10.5023634   6.4332485  54.7484016  56.6571522  16.4019883
  55.0952148  57.0765209  15.6145334  55.3646803  56.8989658  17.0933330
  16.3474500  24.5715833  11.7178929  17.1341264  25.1060462  11.8261659
  16.2641227  24.0976501  12.5453424  13.4396172  12.6026165  40.1417780
  13.7563920  13.1732392  39.4415784  13.5330677  11.7173159  39.7900057
  24.4686627  16.9013643  20.2937794  23.8868594  17.6414490  20.1205397
  24.9895000  17.1775579  21.0478854  76.7383528   9.5479882  29.0511942
  76.8052053   8.5966706  29.1333985  76.8762970   9.7181588  28.1193972
  73.0323648  18.3465636  23.0670714  72.2285414  17.9652119  23.4201598
  73.3062506  18.9824295  23.7280512  28.5255551   6.3514411  34.5505142
  28.5430741   7.2771096  34.7935438  28.2262254   5.9019440  35.3408217
  39.8111677  72.3578739  13.1819367  40.1935768  73.0049753  12.5892687
  40.1800537  71.5225935  12.8947794  51.1293459  75.0213242  35.2157593
  50.3929853  75.4036760  34.7384596  51.8272448  74.9525166  34.5642734
   8.7064773  15.9287488  18.3893001   7.8224862  16.2895262  18.4573579
   8.6390448  15.0553000  18.7750101   7.0888335  43.2974768  65.3408670
   6.2606519  43.7676954  65.4370117   7.7404940  43.8769770  65.7355261
  11.5195334   9.3204439   3.3985180  10.8065438   9.1403705   2.7857766
  11.6253865  10.2713466   3.3700493   1.6138135  61.4518547   1.8820992
   2.3514843  60.8422995   1.9047835   1.0031461  61.0655880   1.2543136
  14.8375154  45.6681824  33.6427593  15.0423050  46.3697815  33.0246592
  14.1791475  46.0468340  34.2253447  34.1032839   6.3084590  55.4857445
  35.0561142   6.2172294  55.4809666  33.9254904   6.9274306  56.1939096
  69.8026514   7.7274495  14.9944186  69.2115450   8.1560338  15.6133986
  70.4681158   8.3880651  14.8021185   6.3973010  14.0644562  26.5831709
   7.1955073  14.4651651  26.2388873   5.9909594  14.7534537  27.1089101
  32.1825695   8.1332362   3.9755908  32.7931261   8.1557006   4.7124407
  31.8785572   9.0367174   3.8888159  26.6237402  33.3904934  24.8214078
  27.2874165  33.4758711  24.1369557  26.3334656  34.2875004  24.9867892
  63.5241842  60.2879477   5.5283254  63.4326553  59.8035192   6.3488030
  62.8554392  59.9148655   4.9540251  78.2500601  46.5024948   9.1715753
  78.8477373  47.2463942   9.0965521  77.6109028  46.7742586   9.8302513
  68.9018917  53.4910440  15.9822905  69.1743135  54.1175747  16.6527188
  69.5471478  52.7861309  16.0368896  76.5798569  24.0231395   4.0887278
  76.3416195  23.1094980   3.9314523  76.1048746  24.2608452   4.8850426
  11.6695547   8.1496298  28.8159347  11.9531739   8.0197978  27.9109836
  12.1480250   8.9255476  29.1079116  31.6241455  40.3314734  62.1531010
  31.6679740  40.9415293  62.8894043  30.9220767  40.6738615  61.5998363
  12.7153170   3.9926636   1.5097205  12.4031794   3.0956429   1.6286984
  12.1985006   4.3311033   0.7785636  77.0881367  21.8014431  63.4893990
  77.5672817  20.9980083  63.2865620  76.6215849  21.6035485  64.3014336
   5.4608244  59.1876984   8.0925810   5.8137995  59.7107458   7.3728168
   5.2353901  59.8289442   8.7665373  52.8268862  73.9358616  27.7226329
  52.9694986  74.8509741  27.4808335  53.4855747  73.7602329  28.3945823
  76.4072132   3.1757316  24.0635562  75.4556656   3.2109949  24.1612577
  76.6509151   2.3139864  24.4015455  47.2903776  67.2221184  28.4330821
  46.8128872  66.4372587  28.1643105  48.1080341  67.1867704  27.9366803
  22.5471234   7.7216041   9.3343663  21.7006397   7.3326641   9.5544225
  22.5845027   7.6888603   8.3784568  53.0712318  76.5099478  26.6129112
  52.8478909  77.1794844  27.2594953  52.9860020  76.9539022  25.7691860
  13.9800251   5.1441127  33.3860087  14.3954289   5.5097353  32.6049900
  14.3791866   5.6197178  34.1145015   8.8017344  62.6065445  33.1812072
   8.4325147  62.3457241  34.0249372   9.1136533  61.7889738  32.7932453
  55.0488949  62.4360371   9.3626773  55.7782650  62.6654911   8.7868291
  55.4534006  61.9437218  10.0769818   0.5843535  74.0836334   6.8546021
   0.4617922  74.5587492   6.0327303  -0.2913299  74.0394688   7.2386080
   7.9214823  55.1336765  54.9668694   8.6151487  54.7806835  54.4096851
   8.3624405  55.7808208  55.5173159  68.2548428  60.1320601   2.9978383
  67.4502563  60.2492285   3.5029554  68.8917494  60.7043362   3.4257221
  78.8927984  33.3263993  10.7912099  79.3696260  34.0854239  11.1269844
  78.5398865  33.6179376   9.9505615  24.1485190  62.2742224  50.6108475
  23.8523626  61.6856098  49.9165440  24.2561507  61.7080593  51.3751173
  70.9788275  51.2172985  52.9233408  71.6229773  51.9252539  52.9134750
  70.7068205  51.1537170  53.8388729  62.4101162  69.4725513  14.0922809
  62.4492359  69.7598076  13.1800389  62.8053474  68.6007786  14.0860319
   1.9178365  63.1556320   6.8513095   1.3475272  62.6376152   7.4193209
   2.0392127  62.6114416   6.0732633  33.9583302  25.3072071  56.9396734
  34.8794746  25.5587649  56.8729830  33.7961936  24.7818279  56.1561441
   3.5815227  68.1830454  22.6595926   3.4973285  68.9466906  22.0886374
   2.9039040  67.5798464  22.3542833  64.1166496  76.3343143   5.0707477
  64.4900751  75.4553938   5.0052768  64.2235184  76.7057943   4.1950688
  34.8815966  70.0464773  13.0678058  35.8208585  70.2299833  13.0493069
  34.6341991  70.1559734  13.9859772  47.4110031  43.6458397   8.5965586
  47.4678993  44.4797659   9.0629876  47.9907990  43.7531042   7.8425276
   2.2204217  40.6851721  36.4085460   1.3172959  40.3724146  36.4612484
   2.1826187  41.5829468  36.7384100  61.9708824  48.6163950  62.6096058
  61.3180876  49.0310764  62.0455790  61.4570045  48.1080198  63.2370710
  12.1287537   3.2772896  19.8231316  12.7693319   3.2078049  19.1152728
  12.4974787   3.9316940  20.4164505  44.7286034  55.2113628  15.6785035
  45.6587219  55.3245592  15.4828119  44.4351387  54.5374250  15.0653780
  60.6409740  67.4620914  37.3478460  61.1761570  67.1069241  38.0575371
  61.2600136  67.6130962  36.6335487  43.6122131  75.5728674   7.7500200
  44.2623806  74.9545336   8.0834436  43.5176945  76.2207651   8.4482533
  56.2924623  14.7157609  51.1505938  56.2137556  14.5763767  50.2068710
  55.4750490  14.3733346  51.5122747  46.5549231  76.6912079  12.1609676
  47.4718761  76.4165640  12.1612024  46.4442348  77.1557045  11.3313735
  65.1514530  69.8872709   5.8946800  64.2780352  70.2041674   5.6645733
  65.7118702  70.1894093   5.1799250  70.2122545  52.8123522  32.2185540
  70.9036303  53.2163000  32.7430129  70.5671883  52.7911520  31.3298464
   7.3710418  18.9101851  -0.1137729   6.7054564  19.5892656  -0.0038739
   7.7473575  18.8001013   0.7594396  12.3154974  14.1447771  10.3025866
  12.2467232  14.0557551   9.3520200  13.2330644  14.3698812  10.4563034
   4.2168567   3.2134086  27.4150491   3.6395732   3.3840892  28.1592560
   4.5591414   2.3337881  27.5742364  10.1301897  49.3141603  29.1845179
  10.0217700  50.1770496  28.7846518   9.2502141  48.9374971  29.1836405
  71.9401407  56.0420084   2.2734258  72.5079536  56.8069220   2.3668455
  71.2814522  56.1474085   2.9599068  76.6338062   9.0819609  14.5785189
  77.0362234   9.7100073  13.9786434  77.2611856   8.3606154  14.6263468
  18.4790790   0.9339353   3.9855376  18.1157386   0.5312904   3.1968090
  19.3212545   0.4967584   4.1114253  14.0089822  18.4017181   1.0436947
  14.8342693  17.9247630   1.1311348  13.5720611  18.2809365   1.8867508
  67.4998951  61.9012308  15.3836560  67.1683598  61.7367649  14.5008934
  68.3190060  62.3772860  15.2470434  23.6313128  10.8948648   3.3220351
  24.1683960  10.2113557   2.9212996  24.1999960  11.2895358   3.9831448
  21.1706352  11.2201536  12.3221469  21.2626314  12.1239936  12.6235461
  20.7480383  10.7663572  13.0513334  67.2073650  52.9563856   6.8036330
  66.3505411  52.9510164   7.2303116  67.7840567  52.5032139   7.4186862
  15.4469121   6.1429602  22.5396919  15.4085600   6.5242279  23.4168434
  16.3394642   6.3178074  22.2413492  70.5825663  72.5935698  18.7634671
  70.0691414  72.4683046  17.9653823  70.6122494  71.7264366  19.1677368
  18.5895777   2.4931040   7.6966882  19.1899741   1.9188151   7.2213471
  17.8752363   2.6554519   7.0805794  74.2950106  29.9346852  24.6741819
  75.2059317  30.2219820  24.6116138  74.3246126  28.9991784  24.4737148
  20.5660868  19.3709099   5.7228333  21.1318874  19.9167287   6.2688959
  20.9723568  19.3964505   4.8565054   8.4537411  66.0672665  66.2861061
   7.7757013  66.2212753  65.6282520   9.0795892  66.7798042  66.1563635
  17.1780062  23.2653332   9.0906835  18.0262637  23.7077212   9.0593690
  16.7338431  23.6521673   9.8452097  25.7123184  12.2335172   1.2176421
  26.6126513  11.9846785   1.0085697  25.7205415  12.3913991   2.1616958
  27.2011971  47.0645475  60.5418396  27.3843336  47.0712948  59.6023464
  26.3424087  47.4797249  60.6214428   7.2197545   7.4967432   7.3730206
   8.0500966   7.2882175   6.9449079   7.3159486   8.4074688   7.6515114
  25.9844828  21.5742207   7.4392128  25.3681278  21.7290854   6.7234242
  25.5915189  20.8620381   7.9437971  56.6969204  75.3292465  13.9623034
  56.8981552  76.0991049  14.4943368  56.6504478  74.6090460  14.5910978
  23.8582420   3.1844851  23.7872005  24.6104431   2.7452415  24.1840506
  23.2137179   2.4882294  23.6605144  66.3386440  51.1362219  25.2415586
  65.9098148  51.8226051  24.7304726  65.6784201  50.8644533  25.8791137
   9.8444366  20.1404619  13.3832097   9.4657540  20.6551695  14.0958869
  10.5384648  20.6963229  13.0288434  31.3400292   8.8826275  30.4132462
  32.0904207   8.3134580  30.5840898  31.3700914   9.0418953  29.4698668
  52.0934963  17.8775275  19.3854690  52.4386978  18.7132800  19.0714860
  52.8520775  17.2938561  19.3960452  32.6553297  60.0388622  58.6652517
  32.2057152  60.2257538  57.8411436  32.1938944  59.2804575  59.0232038
  21.9347239   2.8250867   1.0038385  22.7746081   2.8906432   0.5493838
  21.8228722   1.8884620   1.1664878  26.2173104  30.8775687  23.6360073
  25.4138350  30.9269238  23.1181049  26.2096214  31.6742611  24.1665316
  53.6656094  28.6600375  58.4892845  54.2323208  29.1605306  57.9022741
  54.2391634  28.3965445  59.2088985  61.0454082  69.0985966  22.1487737
  61.9187021  68.8362312  22.4398971  60.5165482  68.3051920  22.2326827
  78.2062149  73.3151770  11.1548400  78.2450724  72.5084019  11.6684854
  77.2718573  73.4584427  11.0042155  76.5450144  70.3726339  37.0853209
  77.3015356  70.1287222  37.6186228  76.9136763  70.8891010  36.3686752
   0.1794002  72.8266335  29.5045853   0.9900089  72.3217010  29.4398761
  -0.4380976  72.3617125  28.9399791  43.6543798  13.7745440   5.9552693
  43.2301855  13.6866307   5.1017118  43.6221218  12.8945613   6.3305306
  12.1170735  75.4254198  10.4931533  12.8932738  75.3617716  11.0496545
  12.4320185  75.2045679   9.6166450   1.7539649   6.4939880  10.1178277
   1.9076128   5.5502039  10.0742888   2.5208062   6.8812221   9.6956468
  17.8398263   6.4859343  21.4764452  18.7116480   6.7627764  21.7584348
  17.7851629   6.7618930  20.5615187  46.7863083  31.0080075  10.8694220
  46.2701511  30.3903818  11.3874507  47.5756550  30.5210328  10.6327510
   5.5408168  11.1759651  35.3452659   6.1567879  10.8279419  34.7005224
   5.7063079  12.1187377  35.3500605  19.9922431  13.4675395   7.2773266
  19.2681277  13.8676655   6.7958832  20.6333208  14.1716754   7.3745155
  68.1047344  33.6294532  28.0362606  68.1733608  34.0655422  28.8855815
  67.1710205  33.6574554  27.8273916   5.7837605  74.0677595  16.0903096
   6.4379227  74.6080065  15.6470954   5.6192517  73.3453751  15.4842365
   7.4630231  16.6754591  15.3324795   8.2491964  16.1590147  15.5098164
   6.8468410  16.4166868  16.0177445  17.4231601  14.3973517  18.7120664
  17.2084451  13.9273942  19.5178390  17.4695063  15.3163147  18.9758682
  39.7588468   1.6049327  21.2098217  40.6012297   2.0589505  21.1876130
  39.9862170   0.6845835  21.3420796   5.0347763   9.4444883  18.8154805
   4.7919062  10.3565419  18.9748669   5.0102091   9.0354091  19.6805143
   9.2150444   6.8075585  44.3546486   8.5937899   6.1794257  44.7230530
   9.7970313   6.2775224  43.8100529   7.1022308  38.3536100  22.0915842
   7.1136528  39.3089223  22.1505833   7.8808355  38.1359649  21.5791035
  21.5567565  20.4912877  22.6627851  22.3800421  20.2557135  22.2350740
  21.0286236  20.8823609  21.9668198  68.0196381  59.7462940  20.9531808
  67.8279638  59.2737103  20.1431441  68.1556368  60.6521893  20.6755185
  30.5108953   4.0653428   7.2077829  30.3740621   3.1632888   6.9182873
  31.2714386   4.3641239   6.7092508  15.9429002  33.1724262  61.3215876
  15.4642963  32.3451900  61.3749790  15.2602828  33.8430858  61.2996435
  37.5808430  29.3413186  12.1855891  36.8842506  28.9964414  11.6269743
  38.3810639  28.9415073  11.8449545  12.4210405  11.0517073  13.8559413
  11.5620685  11.1937857  14.2537010  12.4232841  10.1252437  13.6153352
  29.8880863   5.2899015   1.5136041  29.2026043   4.6757889   1.7766871
  30.6686306   4.7462267   1.4068323  13.9545774  24.6314669  15.8613968
  13.7645435  25.2324224  15.1410019  14.8106909  24.2617941  15.6454229
  16.3424182   4.5585886  12.5122643  17.2314835   4.3065062  12.7617598
  16.2699878   4.3025595  11.5927887  20.7791162  20.4531837  29.9824190
  21.5953350  20.2104425  29.5452738  21.0080409  20.4953527  30.9108853
  15.6197071  17.6150119  18.5312521  15.1850593  17.0015693  17.9387987
  15.1793516  17.4890089  19.3717527   1.0035297  16.4725351  13.0699623
   1.6471931  15.9836805  13.5827494   0.5071387  16.9697940  13.7200093
  33.2937288  16.4180064  23.4224224  33.6843252  16.8965864  22.6912427
  33.5851622  16.8915141  24.2015815  79.8408842   6.4101559  17.9978287
  80.6719494   6.5513301  18.4512997  79.2689514   6.0234177  18.6608219
  32.8195548   2.8544015  28.3236361  32.1241188   2.5847626  28.9235497
  33.5922194   2.3742029  28.6213422  38.2029438  48.5427856  65.3192091
  38.8792658  48.4968710  65.9950113  38.5406423  49.1751957  64.6849775
  35.5804014  71.2566948  18.4820759  35.2063346  71.5707779  19.3052745
  36.5181398  71.1810017  18.6585701  61.3542891  63.3690119  15.9667206
  62.0930433  62.8143549  15.7160759  61.2340212  63.1999016  16.9011557
  14.4857323  12.9590726  16.4429927  15.1650786  12.7261794  17.0758295
  14.0039527  12.1447277  16.2982142  18.8000572  69.2979097   3.8513014
  19.0293550  70.1931858   4.1005820  18.9953279  69.2524290   2.9153353
  72.2772980   2.4404676  54.6778870  71.5372324   2.6142257  55.2595615
  72.6979065   3.2927686  54.5642900  17.5188231   1.5169474  14.5761847
  17.8494453   2.4151194  14.5617771  17.6498473   1.2279500  15.4792607
  51.3344288  40.8625698  61.3483810  51.4533281  41.4394522  62.1028996
  50.6149101  41.2575483  60.8559227  25.4443002   9.2662168  21.7662525
  24.9775147   8.6601913  21.1908579  26.3643885   9.1687018  21.5209866
   5.2259064  60.2752304  46.3570356   5.5925405  60.8125734  45.6548405
   4.3016091  60.5218887  46.3896799  55.2542019  69.2697811   5.5240357
  55.4756737  69.2826176   4.5928979  55.3789997  70.1739407   5.8124000
  20.8226204  15.3803933  28.4451818  21.5928435  15.7767630  28.0378985
  21.0187125  15.3836346  29.3820739  65.4115725   0.8352529  17.5150108
  64.5853615   1.0595886  17.0869040  66.0691261   1.3568980  17.0548558
  20.8705950  27.1821499   9.1677773  21.3350797  27.2669148  10.0004244
  21.5643358  27.0878863   8.5150367  23.3009267   4.0017077  27.9885221
  22.9674196   4.7681361  27.5220537  24.0994000   3.7633538  27.5175047
  41.7298698   2.6748890  24.7296786  41.4307117   2.9631042  23.8673162
  42.6137447   3.0336764  24.8088217  32.4488902   1.1777934  24.9265289
  32.1978736   1.9243406  24.3825722  33.4009457   1.2443399  24.9999905
  17.9847729  21.0240126  21.0211587  17.1771920  21.0915089  21.5305591
  18.1779289  20.0867081  21.0015130  73.8600016   2.0363437  58.0083656
  74.2628288   1.7693859  57.1821117  72.9226017   1.8969892  57.8738451
  25.9460592  67.7489138  22.3769498  26.1662602  68.3041573  23.1249142
  25.4245758  68.3126068  21.8055129  14.7339416   7.9265189  34.0612626
  15.2541327   7.3788047  34.6491766  15.2753723   8.7021822  33.9148688
  75.7941628  70.7497406   3.5604680  76.7022085  70.7869625   3.8609698
  75.4353619  69.9670696   3.9786965  49.6479893   8.9621669   9.0167493
  49.6478748   8.0341399   8.7822330  49.0140390   9.0288383   9.7308195
   1.0316260   9.5412785  27.1918273   0.8108050  10.4391348  27.4394631
   1.9761354   9.5607406  27.0376992  76.6120100  73.1928158   0.4973363
  76.5833473  74.0337849   0.0410655  77.1055937  73.3713150   1.2977989
  79.1004276   5.7803321   2.4031053  79.1629505   6.7299914   2.5054267
  78.7264681   5.6575507   1.5305732  69.4452190  74.1072321  23.6901307
  68.5114479  74.3175316  23.6985636  69.6727705  74.0646982  22.7613449
  16.8082225  74.8589993  17.7139449  17.6619327  74.5843363  18.0485654
  16.1897290  74.6064281  18.3994412   5.3482831  11.0193360   6.6833341
   6.0051811  11.4919353   7.1945733   4.6282661  10.8716977   7.2965312
  38.4017801  20.4907179  15.1522219  39.3386030  20.3432918  15.0223684
  38.0847621  19.6802437  15.5507982  16.6924334  30.0919604   8.9279461
  17.5496244  30.2618933   9.3185574  16.4833534  29.1953588   9.1899019
  32.3281837  38.1225443   5.2068818  33.2839799  38.0722404   5.2193511
  32.0388651  37.2435975   5.4517925  37.4123287   5.7818514  18.1390154
  36.5926933   5.8903462  17.6566708  37.6014066   6.6525310  18.4888721
   0.9941317   1.1817788  28.0116606   0.7891276   2.0781764  27.7458096
   1.2580524   0.7460400  27.2012830  36.6551304  12.2007489   3.2250878
  36.5275574  11.7914641   4.0809166  37.3958397  12.7937675   3.3512196
  40.8550406   8.5865140   4.3292108  41.1185455   8.0449533   3.5852289
  41.5990543   9.1706538   4.4756728  40.6853580  13.3031404  12.0889258
  39.7937179  13.5387170  12.3452675  40.9025240  12.5516307  12.6405644
  20.7437801   6.5912741  21.6789293  20.9366775   7.2331929  20.9955835
  21.5940857   6.2083310  21.8947268  11.2790191  15.7330549  17.2133708
  11.3300002  15.5033147  16.2855494  10.4135609  15.4300332  17.4879444
  66.5774918  73.5071039   9.8027050  66.4159107  73.0779648   8.9624894
  67.2380447  74.1721773   9.6088469  77.3582506   9.6316135  18.1138861
  77.5439548   9.5059830  17.1833146  76.8461609   8.8619059  18.3619750
  54.6232653  74.9535942  11.4338589  55.0259495  74.4163609  10.7516134
  55.2267361  74.8923206  12.1743333  73.0409718  69.5726728  32.9513311
  72.4052238  69.7041798  32.2479391  72.5190163  69.2612839  33.6908102
  67.3296547  67.1196032  11.9217789  67.0738268  66.2125492  11.7543387
  67.8386211  67.3710728  11.1510968   6.7955196  21.9936681   4.2737085
   5.9305865  22.2209954   4.6149480   6.7734420  22.2744155   3.3588725
  67.1888065  72.8018427  13.8134134  67.6499128  71.9646311  13.8652635
  66.3930607  72.6693201  14.3286431  28.8012481  48.1832552  64.9468899
  27.8630280  48.2777596  65.1113367  29.2177606  48.7223339  65.6193113
  10.6597900   9.1035950   7.5243634  10.3080595   9.0167636   8.4103531
  10.3535473   8.3203292   7.0672613  49.5094156  40.3548288  63.9652157
  49.9987936  41.1223316  63.6691141  48.8255882  40.7109833  64.5324612
  23.8448668   0.3046716  37.9648495  24.5087981   0.3765304  37.2790956
  23.0111670   0.3494259  37.4966908  13.0158210   9.8217475  10.9509051
  13.3039820  10.6845713  11.2487829  13.2001209   9.8187619  10.0116205
  57.8279066  36.9067812  58.9121056  58.3140850  36.5944624  59.6752024
  56.9332218  37.0264030  59.2306423  23.8687801  54.1575098  65.5150652
  22.9218030  54.2121935  65.6434345  24.0957642  54.9675989  65.0584888
  13.3495009  10.4435062  16.5647066  12.4764311  10.2622509  16.9127405
  13.4042776   9.9153179  15.7683086  14.0902805  14.5718455  30.6062579
  14.4456983  15.4497695  30.7446766  13.5174859  14.4239521  31.3587642
  55.8244276  55.9439707  27.2763014  56.7524481  56.1780500  27.2908998
  55.3765583  56.7190266  27.6153207  26.2373900   4.5048413  19.4119453
  26.3900828   4.8127043  20.3053308  25.3276920   4.2070538  19.4134247
   7.7953869  10.2081215  16.3381457   7.9858857   9.4045383  16.8220842
   7.1110994  10.6394303  16.8499625  20.2739000  32.4218988   4.6729428
  19.3610978  32.2047639   4.4835290  20.7398677  32.2284794   3.8594961
  58.2610226  76.9084120   8.9243972  58.5532856  77.5430346   9.5786685
  58.3767128  76.0576439   9.3475258  73.9873934  47.9056549  42.7617836
  73.0857801  47.5844193  42.7502394  74.0782690  48.3336782  43.6131191
  73.8701868  26.9444156   3.7680283  74.3807888  26.5902138   3.0399746
  74.2664337  26.5578151   4.5489007  10.0644302   4.1858763  31.0928679
  10.5571961   4.5884728  30.3777957  10.7271361   3.7357339  31.6167235
  14.9744689  76.4790678   9.5121431  15.4932284  75.7524061   9.1670519
  14.1196942  76.3838768   9.0919864  54.5630023  60.4515465  67.0941640
  55.5031989  60.4128869  66.9187516  54.1566036  60.1076992  66.2986520
  21.3579869   9.5093292  20.7637024  22.0553493   9.3976825  21.4098072
  21.2093997  10.4544127  20.7325506  35.5719995   8.3110797   3.9800215
  36.2156582   8.1827772   3.2832640  35.4391026   9.2584753   4.0118378
  67.0000601  65.1752377   5.9131300  66.8529892  66.0834599   5.6490541
  67.7631187  65.2140236   6.4897311  64.4372129  67.4203873  57.4745321
  63.6811399  67.5901365  56.9125986  64.4352150  68.1421566  58.1032372
   0.5418645  75.7589388  12.3627293   0.7527956  75.3143215  11.5417218
  -0.3671713  75.5168200  12.5395465  80.1460075  10.6158996   6.7075658
  79.6934938  10.3134739   5.9201658  80.8274174  11.2037003   6.3813621
  23.3300161  72.4277878  11.4060259  24.2797828  72.4876738  11.5089262
  23.2030821  72.1914101  10.4871988  33.1696868  35.8383632  64.2165279
  33.9694357  36.2412763  63.8784552  32.4689460  36.4297056  63.9417410
  76.1843417  53.6412771  66.8547039  76.4828751  54.4075449  66.3648633
  76.8061469  52.9515214  66.6226960  14.2690027  55.1593637  46.5844870
  15.0320184  54.8095417  47.0445538  14.5950007  55.3774548  45.7113361
  26.3126135  14.6372902  13.4838259  26.0197616  13.8274825  13.0658805
  27.1393776  14.8458886  13.0488789  26.7503524   6.9837159  29.1307425
  26.8710470   6.1642677  28.6509824  27.3010874   6.8895733  29.9079561
  25.4372740   4.4542825  16.7202413  26.0238528   4.4808051  17.4761868
  24.6214700   4.8425636  17.0363677  25.2761555   8.6639345   7.3790812
  25.9704423   8.8074255   6.7359591  25.7385683   8.4135205   8.1788927
  35.6419945  31.8351507  64.1101503  36.0537171  32.3058939  64.8347998
  36.1284828  31.0128808  64.0515280  32.0516539  72.5230742   2.2492015
  32.7176261  73.1848669   2.4356030  31.3766384  72.6692629   2.9119346
  19.9163127   6.9393420   9.8706472  19.2218137   7.1962965  10.4771757
  19.7028303   6.0377753   9.6301597  82.0983182  20.5482292  32.9071879
  81.7221912  21.3707423  33.2206059  81.4119170  20.1632261  32.3623419
  12.5147760   3.5834268  13.2340491  12.7264917   3.7171108  12.3101783
  12.5344968   2.6333892  13.3492506  35.7118917  43.3284998  63.8154364
  35.5771089  44.2125463  64.1567993  36.6562605  43.2689047  63.6710405
  79.2529011  56.7441750  22.6591158  78.5552979  57.2202778  23.1095672
  79.3543482  55.9358358  23.1616354  21.5453172   5.6083226   0.0186745
  21.8412113   4.7111595  -0.1355205  20.7082057   5.5098099   0.4722957
  65.6794310  75.0787830  26.0426188  65.8698797  74.3078566  26.5770650
  64.7626162  75.2798510  26.2303901  63.3383942  53.3267498  61.1396360
  63.6954498  54.2130327  61.1966658  63.3978462  52.9866791  62.0324135
  26.0981488   1.2083112   0.3934321  25.3393269   1.7896827   0.4426821
  25.7733965   0.4281789  -0.0561912  37.3676515   8.3667636  19.1209447
  37.4479842   9.1750014  19.6274328  36.7581439   8.5854328  18.4160233
  36.5867758  12.6501191  29.4052911  36.3843989  12.9724348  30.2835774
  37.3749948  12.1194243  29.5206380  13.6999083   3.9480069  28.0209017
  14.0085769   3.7742192  28.9101458  12.7780271   3.6906648  28.0327892
   9.3447065  11.1670315  11.7274928   8.4258085  11.2481248  11.9829965
   9.7898036  11.8638003  12.2098136  64.6966410  76.0777521  12.7031493
  64.2092705  75.5712128  12.0534432  65.3326464  76.5763521  12.1901906
  69.0135145  74.6461821  12.8343999  68.2965088  74.0445518  13.0348384
  69.3910646  74.3069267  12.0228601  36.3575721  14.1876996  31.7775512
  36.1264253  13.5799742  32.4800277  36.8412876  14.8877311  32.2159648
  12.3602581  24.8377991   7.8401381  11.4620543  25.0062370   8.1249005
  12.8976393  25.0539875   8.6021858  13.8674688   0.5157419  32.9087210
  14.7527993   0.7783805  32.6568460  13.7210357  -0.3085614  32.4447036
  17.3563492   0.2314108   1.4401737  17.3709548   1.1464337   1.1595468
  16.4439666   0.0688821   1.6797012  52.2782898  19.0820122  58.6955738
  51.7499495  19.8798692  58.7181759  51.9167089  18.5354662  59.3932724
  16.1410487  72.5101757  12.6322889  15.7975972  71.6926146  12.9926634
  16.4691579  72.9884195  13.3937752  66.5546608  67.3364735   4.4922262
  66.3482285  67.4978256   3.5715833  65.9738159  67.9248238   4.9746048
   4.3950292  73.4865952   8.3747363   4.9132392  73.0949926   9.0778285
   4.1632664  74.3552494   8.7032968  74.1952085  25.1689625  13.6963677
  74.1965914  26.0631943  13.3549333  73.4627008  24.7435308  13.2506418
  45.8528280  24.2961192  54.4315767  45.0387621  24.2793798  54.9348116
  46.0136461  23.3799672  54.2056704  29.5277977  41.5532064   5.2899313
  29.8265409  42.1107483   6.0083532  30.1182079  41.7594099   4.5652744
  53.7608337  23.3929348  65.5953217  53.7554741  24.2749333  65.9671831
  52.8379679  23.1940436  65.4372311  54.1519547  69.6545410  53.8195419
  53.3194923  69.4736052  53.3830738  54.8176813  69.3822575  53.1879568
  32.3562384   6.7733890   8.4102505  31.7856312   7.5233352   8.2422614
  33.1753874   6.9913423   7.9655892  63.7652159  58.5294628  64.5644903
  63.2381439  58.7940884  63.8105631  64.5643663  59.0514755  64.4931126
  21.8340898  22.9669499  13.3579350  22.3929977  23.6689568  13.6911666
  21.6335845  22.4345851  14.1277504  47.1214819  64.4090128  65.1704550
  46.9501638  63.4673119  65.1792288  47.1511078  64.6556950  66.0948467
   1.1183364  73.0874491  22.6041627   1.2290068  73.0241346  21.6554928
   0.1719593  73.0375767  22.7387547  73.4756470  39.3222857  59.0612507
  73.4467745  39.1041684  58.1296825  74.2776442  39.8349118  59.1624737
  38.3700633  45.0699949  15.0094151  39.0329647  44.4386148  14.7298574
  37.8188801  44.5831251  15.6221032  22.6986861  11.5504861  18.2650852
  23.1574249  11.9695592  18.9932120  23.2297802  10.7814741  18.0582225
  22.6120186  39.0298486   6.1374468  22.7574944  39.1444063   7.0765662
  23.3729076  39.4392323   5.7255191  25.5154443   4.7158664  11.3968670
  26.1256146   5.0680739  12.0448434  25.7152390   3.7803474  11.3634217
  24.4160748   9.0549076  17.0576656  25.0160265   9.7080863  16.6976023
  24.1892314   8.5006523  16.3109565   1.1325797  65.2352190  17.0284963
   1.1741561  65.7827330  17.8125429   2.0196000  65.2627945  16.6697943
  37.4873233  71.5488625  54.7609425  36.6894031  72.0496750  54.9304771
  37.5900626  70.9932280  55.5335665  36.4197230  45.9222746  12.0650625
  36.6017795  45.0883579  12.4982691  35.5442166  46.1633015  12.3677576
  44.0862322  60.4842520  62.0553875  43.2512522  60.9202147  61.8851566
  44.1538763  60.4606438  63.0099010  31.2067151  14.4810188  12.6183426
  31.6047907  13.6411738  12.8473175  31.5227222  15.0866008  13.2888973
  19.2313421  31.1416841   0.6733086  20.0004148  31.3358665   1.2090806
  18.4875154  31.3780427   1.2274627  34.2556095  72.5074625  42.2526598
  33.3785248  72.2553444  42.5414371  34.7918129  72.4578476  43.0440235
  28.5480022  47.4895954  21.7762089  29.3213177  48.0525970  21.7409587
  28.1640458  47.5550270  20.9018350  58.8581753  74.1833591  66.0667610
  58.2223082  73.5669279  65.7035494  59.5342302  73.6286116  66.4559126
  61.4216518  39.9214482  60.8427191  61.2969398  40.7388735  61.3248920
  60.5868816  39.4614768  60.9311247  42.9591703  16.1218214  10.7769978
  43.0790234  16.0600698   9.8293412  42.8262997  17.0554113  10.9412825
  47.4185038  61.0552216  66.9929934  48.2349825  60.8648539  66.5310955
  46.8304014  61.3853264  66.3137293  34.3255997  30.2072906  12.6721680
  34.4667792  29.3768930  12.2174788  34.8566246  30.1391840  13.4656453
  11.6879129  61.8648767  43.0146265  10.7902110  61.6206980  42.7893686
  12.2114706  61.1003256  42.7746630   9.4763798   5.8800703  38.4234428
   9.5364612   4.9635741  38.1538939  10.2225506   6.3038659  37.9993463
  73.7303495  68.9079857  62.8499174  74.6298361  69.1759920  63.0378771
  73.7942696  68.4092379  62.0354319  61.8943548  66.0966635   8.1809199
  61.2216520  66.5023327   8.7278521  61.5298843  65.2431774   7.9465061
  57.6728868  71.6894817  35.7471395  56.7171955  71.6376591  35.7329178
  57.9494381  71.2311983  34.9535871  56.6739607  62.6069117   2.5376090
  56.5560675  62.0524311   3.3088946  57.5829268  62.4618340   2.2749993
  13.7602425   0.9591495  62.0955801  12.8701723   1.1944342  61.8335724
  13.8525224   1.3170820  62.9785299  40.9552193   9.8769790  56.1802721
  41.6293669  10.4846752  56.4843464  40.9117317  10.0209701  55.2349615
  40.0963354  37.9900742  15.1253676  41.0405254  38.1042409  15.0171995
  39.9364734  38.1799507  16.0498261  79.8278522  14.0966296  39.6056032
  80.2530670  14.9515855  39.5387459  79.8821688  13.7323689  38.7220907
  38.7945509  28.4551263   4.5767632  39.1076326  27.6636028   4.1389245
  39.4810176  29.1033697   4.4193590  46.0959148  10.8313084  57.0418549
  45.9199905  10.3132212  57.8272629  46.9961452  10.6086373  56.8047142
  34.2893004   8.2220823  57.4998665  34.6183729   8.5537779  58.3352804
  33.3929276   8.5536522  57.4468708  78.8857985  69.5676947  39.1869259
  79.5573282  69.2811871  39.8059464  78.8549042  68.8733912  38.5287309
  19.2837954  10.5008519  50.8909655  18.4748900  10.9934163  51.0298300
  19.0362859   9.7984844  50.2895880  51.4306164  38.7922168  13.8739741
  52.0215082  38.4217930  13.2183313  51.1555243  39.6302843  13.5022295
  57.4459648  65.4220676  12.4985147  58.3965397  65.5013514  12.5782394
  57.1107197  65.6891870  13.3543706  15.0369418  25.8295655  52.0482683
  14.7816944  25.9857154  51.1390400  15.9290338  25.4872990  51.9912004
  56.8389940  74.1974926  60.2180004  57.5997734  74.1000986  60.7906818
  56.7852116  75.1381350  60.0490904  54.5658970  70.9543848  58.4545565
  54.2600298  70.2145481  57.9298544  54.0539074  71.6993046  58.1396103
  27.9837418   4.1781691  60.7651806  27.8249168   5.0802970  61.0429764
  28.8735127   4.1893014  60.4124546  59.4311810  62.0920086  13.6861873
  58.7925577  62.3464727  14.3522513  59.9652386  62.8754234  13.5547423
  60.1857376   6.2480783  57.7106380  59.5718527   5.6233525  57.3245096
  61.0034084   6.1064243  57.2335911  12.2323954  70.7534552  66.1448479
  12.4904573  71.6708326  66.2345648  12.5618768  70.3331709  66.9392252
  31.8800521   0.4474027  38.0615115  31.1867452   0.4102516  37.4025917
  32.3677421   1.2437963  37.8514028  71.2618017  63.6034155  17.9140985
  71.9514227  63.0526543  18.2846594  71.7283678  64.2375946  17.3697031
  36.0806012  34.5292211   0.3730706  36.3495731  33.6402798   0.6047349
  35.6913114  34.4425654  -0.4970878  16.8257236   6.7905378  52.2143602
  15.9127069   6.5335786  52.0854998  16.8314195   7.7363318  52.0671463
  76.5064573  52.9402828   1.9510446  75.9641552  53.7119246   1.7876093
  77.3275948  53.1235743   1.4945716  18.2273805   8.4127653  60.4814386
  17.8324962   8.8579071  61.2312031  17.5524986   8.4413517  59.8032427
  25.2491784  73.1198168  56.6979933  24.5842242  72.8917503  57.3476505
  25.8901787  72.4110222  56.7523623  40.0863886  26.2793922   3.8160798
  40.9499454  26.1761928   3.4162641  39.7198677  25.3952003   3.8260818
  63.1367970   2.6897472  65.6274462  63.3100462   3.6054680  65.4091072
  63.4307623   2.2005473  64.8590040  32.3918319  26.0105085  51.2005329
  32.4656653  26.9276261  50.9365797  33.2618022  25.6445599  51.0409451
  70.2136517  45.3011847  16.5073013  69.9874067  45.6329632  15.6384134
  70.6249142  46.0447502  16.9479954  48.4062243  26.4685702  62.9950237
  47.7381182  27.1400523  63.1327868  47.9196310  25.7083821  62.6763201
  51.1790228   9.5085311  67.1190643  51.2286711  10.4409528  66.9084549
  50.9890461   9.0838218  66.2825489  52.7787209  35.2495146  65.4863310
  53.3878183  35.5239654  64.8008299  52.4028397  34.4321132  65.1595259
  38.7794566  56.2569141   6.8330157  39.6288967  56.1798334   7.2674596
  38.7913060  57.1281433   6.4367181  36.5820169  27.7417707  49.8438692
  36.2831187  26.9278288  50.2493143  36.0477066  27.8262830  49.0541792
  34.1453242  23.5263777  65.2499437  34.0596557  24.4656515  65.4132080
  34.7412062  23.2179809  65.9326220  40.5129337  30.8209920  59.9530077
  40.5062246  31.7150307  60.2948904  39.6057320  30.5266833  60.0342655
  65.1331472  55.0167751  16.0300136  64.5964241  55.0781393  15.2398276
  65.8081484  55.6853962  15.9135890  56.5854645  28.6810565  14.1429520
  56.2517500  29.4137907  14.6606028  57.5375700  28.7628341  14.1981065
  24.0651393  16.3565254  53.3083773  23.8648939  16.7077994  52.4407721
  24.6173453  17.0240593  53.7154388  13.1048131  17.2267103  37.8391862
  13.2389998  17.7984416  38.5950613  13.7498045  16.5281463  37.9497623
  11.6638672  40.0651789   8.8563788  10.9183621  39.9953437   8.2600766
  11.8496060  41.0032320   8.8987756  40.4918718  58.4737015  11.8715346
  40.0377703  57.6343393  11.7973924  40.1336861  58.8704777  12.6655793
  75.6155396  55.4096413   9.3709314  76.5343666  55.3468370   9.6317965
  75.3820801  54.5215893   9.1005796  19.8152578  17.7457869  61.6860485
  19.1187453  17.1503186  61.4094257  19.3907011  18.3399034  62.3049212
   2.5607660  13.8681662  53.7825489   2.0505574  14.2499650  54.4967937
   1.9111863  13.4337759  53.2297516  30.7974076  20.2869058  57.2712421
  31.4377069  19.6703148  57.6262951  31.2399840  21.1351418  57.3004532
  28.8360023   9.3634963  55.4500437  29.7259831   9.0112042  55.4575253
  28.3382010   8.7453246  54.9149847  63.2486105  44.8599958  15.4061067
  63.8882923  45.4169416  14.9624348  62.9576111  45.3795671  16.1555040
  19.1934109   1.7891394  64.0978479  19.9098659   1.1602339  64.1838789
  19.2276525   2.0674893  63.1826496  28.5591316  12.9443657  51.2228298
  28.6405849  13.8572288  50.9466457  29.3766809  12.5346923  50.9399652
  53.6198378  15.2532172  51.8067169  53.8575268  15.3767872  52.7256632
  53.9282322  16.0475552  51.3706541  75.9546328  37.8755879   8.6971372
  76.4540529  37.7434683   9.5029610  75.6177521  38.7687540   8.7678564
  59.5847273  54.4298124   2.6579174  59.2577553  53.5304451   2.6795098
  60.1216698  54.4705153   1.8665472  41.6673183  20.0805521  62.0905638
  41.0585737  19.3942106  61.8174362  41.1458492  20.8830953  62.0754910
  46.3439226  26.9388413  54.5613766  46.2575769  26.0124469  54.3365002
  46.1759043  26.9733787  55.5030823  26.1419916  10.4036820  46.5186405
  25.3768659  10.2027583  47.0575666  26.4213967  11.2705493  46.8130970
  75.6805325  77.0028114   4.0321583  76.4930677  76.6529751   4.3977091
  75.8800268  77.1565437   3.1086859  60.0781155  69.6791029   9.0969521
  59.7523737  70.1405525   9.8697335  60.0121737  68.7520647   9.3260443
  28.7407660  67.6345158   6.6296810  28.2205915  68.1614876   6.0230911
  28.5081124  67.9674959   7.4964154  75.2197695  72.0980406  61.0367393
  75.4840279  72.1983671  60.1222277  75.9356689  71.6074181  61.4404774
  37.5554919  22.9495645  55.3895521  37.2896838  22.1521330  55.8474636
  36.9199443  23.0412817  54.6796942  63.3195543  31.9181395   0.3421465
  63.8877392  31.4438128   0.9491181  62.4318409  31.6783428   0.6080281
  48.5407972  55.7657719  23.6195517  48.3268118  55.0024748  24.1560388
  48.2186699  56.5118933  24.1252875  75.2641344  66.6383886  26.1979508
  76.0909605  67.1206188  26.2048030  75.3759527  65.9810066  25.5112386
  54.9437141  45.6519175  10.6561565  54.3082380  46.0241842  11.2675607
  55.7416344  45.5470276  11.1743820  12.7846754  76.2010288  54.9564600
  13.5377765  76.5170431  54.4572544  12.4349725  76.9831800  55.3832865
  51.1145639  57.8135967  20.1363969  51.8705177  57.4517345  20.5988050
  50.7347107  57.0652866  19.6759939   5.4661846  17.1513546  35.5602169
   6.2438589  17.4925089  35.1185513   4.7759968  17.1959651  34.8984909
  18.3117998  20.3780580  33.3122969  17.6385009  19.8075199  32.9416418
  17.9028189  21.2429619  33.3424211  79.9257469  38.6575174  21.7679596
  80.2803707  39.0745735  22.5531602  78.9764357  38.7328362  21.8647194
  77.5218010  52.4055576  13.9141476  77.0010805  52.9800797  13.3528924
  77.2145844  52.5942850  14.8008442  18.3873653  31.0618377  62.5880861
  17.6309597  31.6151094  62.7829504  19.0434206  31.3157701  63.2371950
  24.1090679   6.5898806  33.9908981  24.7389627   7.0730132  33.4560657
  23.4076810   7.2185451  34.1614032  24.1974425  76.8704844  62.9346657
  23.7353969  76.0387039  63.0390024  23.6107183  77.5205183  63.3212376
  26.0384321   2.8213531  63.8854122  26.1539650   3.5564250  63.2832861
  25.4929113   3.1719413  64.5894909   2.2199470  65.9594965  28.9672852
   3.1757730  66.0024309  28.9952970   1.9939601  65.2546978  29.5742631
  41.4605999  10.3392124  48.9049482  41.9300938   9.5050871  48.9116001
  41.8032789  10.8008420  48.1396389  33.6982274  13.8666105  49.4603205
  33.8447642  13.1438756  50.0705767  33.8579106  14.6546829  49.9796247
  36.7191029   9.0846848  60.2307320  35.8578229   9.2417425  60.6177235
  37.3300123   9.1722202  60.9624147  40.0686216  17.5149655  66.6089725
  40.5191088  17.8730750  67.3738575  40.7559204  17.0708454  66.1123753
  17.1616518  34.2176366  51.6572189  17.3810983  34.3415451  52.5806475
  16.5054667  33.5207486  51.6584015  40.5789137  22.9570818  55.7001400
  40.5083179  23.6133766  55.0069380  39.6883488  22.6220131  55.8043289
  78.7774324  53.0803347   0.5145484  79.3900204  52.4528599   0.8982798
  79.3346119  53.7750530   0.1636210   6.9068211  57.0678520   9.0317106
   6.0307997  56.6820860   9.0333974   6.7878109  57.9306698   8.6347097
  15.9519851  23.2403803  58.6311626  15.8567476  22.7486610  59.4468641
  15.1850498  22.9959321  58.1131983   7.5285733  10.0445592   9.1468680
   6.7776483  10.5358803   9.4799554   8.1203812  10.7145047   8.8045686
  70.8235931  67.0959616  12.6104534  70.5266905  67.0741558  11.7007256
  71.0608482  66.1896467  12.8067541  60.8197594   5.5496544  47.4548101
  60.4540730   5.7160079  48.3236217  61.0273123   6.4188719  47.1118593
  17.3441684  64.1488838  27.3290467  17.9878664  64.8526478  27.4102688
  17.7742147  63.4931278  26.7801619  22.0540643  63.3371353  60.0855923
  22.4973083  64.1790915  60.1898861  22.3256683  63.0289507  59.2210197
  11.9724774  33.5711002  63.3815956  11.1984968  34.1134906  63.5332489
  11.6215968  32.7017736  63.1882524  30.1832604  21.2660408  51.1199808
  30.3709650  21.0999489  52.0437813  30.8848262  20.8168745  50.6485033
  19.8070323   9.5066738  66.8392658  19.4570911   9.7679961  65.9875107
  20.6645989   9.9293405  66.8857718  58.1738520  40.5185556   2.8302953
  57.4289370  40.4531384   3.4278369  58.3916759  39.6107817   2.6187924
  54.7237492  59.5569181  17.3341095  55.6651020  59.5219040  17.1642292
  54.6113491  59.0834951  18.1584084  55.6257725  61.2107801   4.5470700
  55.9895992  60.4264212   4.9577314  55.0361204  61.5751743   5.2071893
  66.3725615  33.7676048   9.0232122  65.6974602  33.3234167   8.5102135
  66.9956446  33.0767274   9.2483526  68.1425524  77.2948503  11.8808150
  68.6251259  76.6136980  12.3492038  67.5346613  77.6475954  12.5306332
   8.0093980   6.9580770  35.4281044   8.6593467   6.2579751  35.3676462
   8.0344397   7.3828351  34.5706749  38.8350153   9.9948400  64.4942856
  38.7029362   9.6401155  65.3734636  38.1584668  10.6657386  64.4025707
  48.5003805  13.8537669  53.7348509  49.3530798  14.2391729  53.9363527
  48.5519934  12.9632270  54.0819883  70.4665089  39.6531296   9.7425318
  71.3451195  39.8348284   9.4089830  70.2832270  38.7574005   9.4591385
  31.4996552  74.8685551  55.2385521  31.1836982  74.3521261  54.4971323
  31.8586230  74.2213535  55.8455992  16.9193816   2.7853885   5.3690934
  17.2235727   1.9909996   4.9301791  15.9749043   2.7979848   5.2140570
  79.2704916  51.6006708   3.8034990  79.5092344  51.3807774   2.9030108
  78.8404560  50.8129835   4.1364312  60.0579882  41.3594103  13.1421268
  60.9641790  41.1492777  13.3677340  60.1110315  41.7361593  12.2637880
  60.2595472  56.0657644  11.9644582  60.9370756  56.7409754  11.9286251
  59.7854948  56.1580467  11.1380267  64.1185665  46.2335348   4.5296833
  63.6428928  46.6939259   3.8383004  64.0770292  46.8232203   5.2825284
  73.8423014  56.8124104   5.1578212  73.7405491  57.4431086   4.4450140
  74.3334293  57.2865057   5.8288324  12.5041366  68.5109282  55.6805372
  12.2148728  69.1638041  55.0431156  13.0894911  67.9368353  55.1865625
   3.1962129  65.0974131   4.5960721   2.5034729  65.2419901   5.2406192
   2.7333316  65.0073576   3.7630877  26.2703419  46.5934277  11.3979816
  25.9662199  45.7170486  11.6339791  25.7185197  46.8473101  10.6582046
  76.5772438  66.1446333   5.2545613  77.0363665  66.9738674   5.1211214
  77.2389984  65.5616331   5.6266165  57.1370506  73.8917828  16.1906254
  57.7543831  73.1757498  16.0408735  56.3514614  73.4635353  16.5307558
  63.0066442  53.8480473   4.8912829  62.2191811  54.3747663   5.0280285
  63.7125587  54.4893408   4.8096952  38.3052325  24.5453501  60.8974695
  37.6626325  24.5881510  60.1893234  37.8522301  24.9162936  61.6547155
  64.7602224  64.2094326   4.1221461  64.3879986  64.9704313   3.6765426
  65.6341982  64.4928551   4.3906114  20.4897428  67.2349882  62.1025944
  20.6144881  66.7283964  61.3000727  20.9688950  66.7458916  62.7714920
  62.2018766  64.8634195  21.0584831  61.7863131  65.4579163  21.6830730
  62.4973583  65.4316807  20.3471446  52.4391890   1.2075063  57.3607397
  52.7847147   1.1580919  56.4694452  52.9925156   1.8556941  57.7965307
  55.2856255  60.2914906   1.6029997  55.3921890  60.9960270   2.2421411
  55.5082083  60.6939650   0.7635336  69.2670441  42.1466875   9.5157218
  69.7638702  41.3386297   9.3874830  69.2644453  42.2783422  10.4638207
  54.3264484  13.1207442  60.9819126  53.9521551  13.8091779  60.4321861
  54.3038988  13.4827936  61.8677139   0.2978708  76.6518307  50.6849337
   0.8583903  77.3939705  50.9113693  -0.2678269  76.5371847  51.4485264
  11.6649354  24.5892262  52.4942636  11.9845629  24.4589758  51.6014576
  10.7160234  24.4831729  52.4268103  42.6198530  21.1784744  55.8250999
  42.9242182  21.2548232  54.9207973  42.1121836  21.9759727  55.9750843
  35.4992247  70.1213455   9.0562028  35.8073759  70.7524395   8.4058189
  36.2779212  69.6140814   9.2854309   4.7260982  44.6097326   6.5250647
   4.2855531  43.9092779   7.0062244   4.6652344  44.3448544   5.6072599
  59.8248053   0.3787864  53.7532473  59.9251127  -0.3146677  54.4053888
  60.7211399   0.6367111  53.5380936  34.2633724  14.0444231  63.0431509
  33.6020637  13.4456992  62.6961136  34.9642658  14.0309608  62.3913860
  53.4487152   8.1041986  45.3896761  54.2516184   7.5999629  45.2580357
  53.5288286   8.8437063  44.7872257  36.2552500  20.1743793  41.1388063
  36.1151814  21.0156369  40.7041836  36.4141059  19.5586693  40.4233360
  32.1484494   7.7373314  43.4772921  32.5621390   7.3770177  44.2616796
  32.6103926   7.3205000  42.7499056  46.9870806  65.2079105  20.2283978
  47.9086590  64.9524307  20.1876855  46.9957876  66.0706282  20.6429696
  47.0094585  41.6518259  64.7785664  46.6876411  41.8364382  65.6609392
  46.5898514  42.3124790  64.2274809  47.6315022  63.1146002   8.4638572
  47.9111195  62.5353861   7.7549440  48.2241917  63.8641977   8.4085721
  50.7618380  46.7613697   8.6809826  51.5259314  47.2092342   9.0440434
  50.0687695  47.4214649   8.6938715  63.9766836  51.7100191   6.2547410
  63.5814762  52.4801254   5.8461130  64.7672081  51.5452814   5.7407719
   5.7763350  49.1144657  14.0868258   6.1741191  49.9539900  14.3174791
   6.1411309  48.4949207  14.7187400  58.7339926  23.0380821  52.7677155
  58.0072689  22.6220345  53.2314014  58.3248186  23.4649134  52.0149708
  41.7191029  12.8610539  62.4437952  41.7076826  13.1726563  63.3487844
  42.6482344  12.8128278  62.2187996  21.2628651  43.8028288  19.7120237
  20.3552675  44.0198517  19.4989550  21.1996245  43.0220890  20.2621841
  79.9794674  54.8537540  13.4174788  80.6028175  55.5636168  13.2633257
  80.5205727  54.0654850  13.4628856  42.0356512  22.1083164  52.7968264
  42.8772879  21.7945266  53.1276083  42.1021652  22.0155096  51.8464613
  23.4049177  12.4521327  64.6347713  22.9799485  13.1215966  65.1709175
  24.3303299  12.6967680  64.6352148  15.0917554  56.6406155  43.6549330
  15.6801689  57.3709917  43.8461065  14.3851709  57.0306635  43.1403160
  71.5521955  72.4345016   4.8400754  72.0443439  72.1468687   4.0711194
  71.4354897  73.3758068   4.7114283  12.0435512   7.2333848  58.5663748
  12.1909261   6.6946018  59.3436956  11.6116881   8.0203086  58.8987589
  75.5370712  55.6212950   1.9456209  75.4550648  55.3628874   2.8636271
  74.7216225  55.3266239   1.5400964  81.8048547  12.5026083  50.3975058
  81.5914328  11.7702007  49.8193502  82.1371813  13.1819618  49.8107624
  65.3402615  58.1346941   0.8315223  65.5014706  58.0551004  -0.1086415
  65.8071375  58.9299440   1.0881044  10.8122897  27.0624566  55.4562426
  11.0337436  26.6647387  56.2982702  11.5962267  26.9412327  54.9205351
  52.8466511  19.4451213  63.8806009  53.2047272  20.1173306  63.3008194
  51.9285440  19.6909761  63.9940453  14.1527820  71.2604141  46.5522432
  14.6980977  71.6192532  47.2523117  13.8603055  70.4127264  46.8870878
  49.6768999  31.7405653  62.7802181  50.0045586  30.9348536  63.1798458
  50.1180649  32.4421048  63.2592297  34.0363526   2.3003587  65.1278496
  34.5644379   2.1552652  64.3427944  34.6665192   2.2775556  65.8479881
  37.9569554   2.8686780  65.9745264  38.7889099   2.8784940  66.4478064
  38.1957030   2.6445764  65.0750780  21.6940236  21.8352532  47.5932646
  21.9530749  22.2743320  48.4034109  20.7763982  21.6002846  47.7310467
  40.6018019  26.3606119   6.6423339  40.0445700  25.5985880   6.8005931
  40.4479408  26.5832996   5.7242006  18.6851561   3.4064943  49.9808598
  18.5797346   4.2482460  49.5374918  18.0587220   2.8271759  49.5470333
   3.5462520  16.7914784   3.4130225   3.7493259  16.5278089   2.5155419
   4.1868156  16.3254237   3.9503342  72.0601511  45.7634592   7.8466129
  71.7933702  46.4708090   7.2594893  71.5130472  45.8779764   8.6236566
  73.8494301  71.8157625   9.6235210  73.8105869  72.2385025   8.7656093
  74.4975042  72.3236418  10.1116693  16.5693545  30.1819587  49.7690678
  16.6753447  30.8800769  49.1228247  17.0582747  30.4868746  50.5334091
  54.0745687  63.5407877   2.0607880  54.9307394  63.1307983   2.1837398
  53.5046291  63.0984354   2.6898533   5.0971597  10.1539445  31.1623526
   5.9423548  10.5499136  30.9500194   5.2583057   9.6630985  31.9681644
  43.5579443  24.0066910  55.6041861  42.6186609  24.1047120  55.4480791
  43.6320210  23.8851213  56.5507412  23.6753726  74.5256138  42.8121805
  24.5809531  74.8200750  42.9093933  23.3086228  74.5836830  43.6944246
  21.3990855  17.8149211  58.6998987  21.1559010  16.9069004  58.8804293
  21.7611814  17.7943087  57.8140688  26.6279125   4.4639257  44.4594479
  27.0090008   5.1170897  43.8726091  25.9250402   4.0633547  43.9478350
  55.8149719  73.7706661   9.0758634  55.6646967  72.8285503   9.1537666
  56.7250872  73.8912392   9.3467516  14.7244024  41.6217756  17.2113276
  14.9629211  42.5312042  17.0316613  14.9965322  41.1435699  16.4280677
   9.2318436  77.2881725  42.2509956   8.5809538  76.8667224  41.6897869
   9.6787736  76.5622366  42.6863146  43.5502291  10.3261304  56.8479252
  43.5423517   9.4749910  56.4100552  44.4560814  10.6260264  56.7722654
  36.4941072  17.9587054  38.5915780  35.6026912  18.1751704  38.8649845
  36.4297152  17.8296101  37.6453114  62.8045845  47.6505613   2.6596615
  62.5123310  48.5552692   2.7706873  62.5233698  47.4148035   1.7755970
  28.6466646  72.5392628  51.1953115  28.1296444  72.6027107  51.9983673
  28.2170272  71.8508768  50.6876040  64.6156502  49.0431881   9.9785048
  64.0230703  48.2932281   9.9270916  64.8629951  49.0901375  10.9020030
  31.5063334   9.2927510  57.4799585  31.0315824   8.4782314  57.3144293
  31.1549115   9.6099830  58.3118820  44.7449255  13.7159193  65.9071016
  44.7187090  13.8779914  66.8501186  44.7848511  12.7627540  65.8289146
   3.3338359  37.0875263  66.1235666   2.8335479  36.7409849  66.8623877
   3.6886957  37.9172492  66.4427328  50.4292870  28.9731503  63.4152412
  50.0597906  28.2098508  62.9713058  51.1478519  29.2549253  62.8491163
  70.7307386  60.1740026  19.6767819  70.5796146  60.8112049  18.9786673
  70.0068998  60.3118992  20.2877426  63.6175251  68.6680555  23.5373235
  64.2149115  69.1498041  24.1094089  63.7790394  67.7473259  23.7432575
   5.7985073  15.1279283   3.7589699   5.5806351  14.3451607   4.2649722
   6.4582586  14.8317993   3.1318593  77.9429197  65.3813028  20.0704384
  78.5652828  64.6857452  20.2827859  77.1268225  65.1087427  20.4898787
  39.2664385  21.8207812  52.4026108  39.9728346  22.0662832  53.0000782
  39.3974400  20.8852053  52.2484350  60.2024031  76.4152431   2.9838502
  60.7987022  75.9107351   3.5371399  60.3474331  76.0735035   2.1015742
  77.3513651  62.8114510   3.1471530  77.8219795  62.8273916   2.3137885
  76.7231941  63.5306835   3.0812728  24.8254371  17.2003913  49.0190601
  25.5731249  17.7577436  49.2348242  25.1948333  16.3199949  48.9506435
  76.5163803  73.4579754   6.6967767  75.9677553  73.2431221   5.9424031
  77.0479727  72.6744461   6.8372363  52.0532894  35.2193284  55.0800085
  52.7081728  35.6653452  55.6170607  51.3482046  35.8591652  54.9815273
   5.8728325  51.3961601   7.9319948   5.4619873  52.2068548   8.2323486
   6.7356634  51.6668892   7.6182073  22.1241188  16.1533308  62.1646547
  21.2615085  16.5623760  62.0952368  22.2544050  15.7241046  61.3190651
  21.9619441  73.1009769   4.9491188  21.7923021  74.0405703   5.0170904
  22.5830293  72.9181147   5.6541312   1.2653199  47.4578047  28.5024166
   1.9069786  48.1633759  28.5841227   1.7846596  46.6551256  28.5495305
   7.4032700  45.6692028   2.0559382   8.0051881  45.5815697   2.7950230
   6.7109990  45.0325966   2.2340518  63.1545019  72.4622583   6.9318700
  63.8969612  72.8584480   6.4757770  62.3892736  72.9255962   6.5913200
  26.6367149  72.8669548   2.6387453  26.8771815  71.9506931   2.7761412
  26.6724777  73.2574892   3.5119206  48.7686253  37.3788333  66.1134911
  49.2236853  37.3723245  65.2714062  47.8564548  37.5654984  65.8913708
   0.3712733  43.4056711   6.9836456  -0.5717371  43.3499384   6.8291879
   0.4577442  44.0076828   7.7227896  62.6307058  28.8789272  65.6227684
  62.6870155  28.2663989  66.3561630  61.9095325  29.4641781  65.8543396
  44.8386431  34.8637938  65.8518934  44.9979019  35.7835650  66.0637665
  43.9379883  34.7053504  66.1346436  43.6662006  20.8583283  48.9218855
  43.3712006  21.6949534  48.5623503  42.8624868  20.4230928  49.2062235
  51.5655613  47.9660654  11.7727530  50.8144474  48.5438251  11.6376388
  52.3073339  48.5602331  11.8866575  61.9833231   5.3913432  55.0320864
  62.9388380   5.3618574  55.0806332  61.7830753   6.2986684  54.8021030
   3.3930749  64.2710304  34.5591021   3.6903283  64.2378616  33.6498308
   2.8360578  65.0483465  34.6007895  20.6750607  10.1338363  14.9944472
  20.1106119  10.3398025  15.7395697  21.4598870  10.6635141  15.1348782
  65.5246449  53.3279467  23.7433386  64.6620226  53.0131388  23.4731269
  66.1154699  53.0314541  23.0510640  13.0403018   4.1755530   6.0252190
  13.6417377   4.8040912   6.4245266  12.1977043   4.3509158   6.4441580
  77.2916222  24.4990778  64.1868448  77.6001024  24.7807622  63.3256102
  76.9842768  23.6029696  64.0498686  71.8178558  70.7799959  16.0091233
  71.8813944  70.3109837  15.1771271  71.7959404  71.7044544  15.7618678
  19.0372038  30.8703494  10.1853812  18.8467431  31.3407922  10.9969473
  19.9881446  30.9280872  10.0925910  51.3487434  22.5759196  64.4104958
  50.8717537  21.8239522  64.7615862  50.9526539  23.3332753  64.8414946
  25.7811928  10.9672797  15.7275891  25.9541464  11.2451613  14.8280895
  26.3521218  11.5186858  16.2625873  68.1989527  76.5877342   4.3213084
  67.9618168  77.4721289   4.0423027  68.7523603  76.2541151   3.6151442
  39.0757084  16.9167054  44.8354530  39.8262382  17.5106907  44.8463726
  38.5415673  17.2191525  44.1009808  73.5614204  69.1472483  23.3755469
  73.4660292  70.0667143  23.6239719  73.8158512  69.1735220  22.4531555
  68.1084013  67.1784782  14.5155072  67.1974802  67.4598122  14.6009707
  68.1643438  66.8128967  13.6326420  69.8694849  40.5088568  58.7222195
  70.4093456  39.7271681  58.8394499  69.4950294  40.4122210  57.8466177
  16.8188488  10.0960875  11.6630149  17.6748002  10.4989254  11.5170634
  16.8970072   9.2222291  11.2802708  52.1725368  45.6572676   4.9202812
  51.2722588  45.3419256   4.9996054  52.1193886  46.5892601   5.1319438
   9.5112610   0.7878481  23.4425592  10.2353716   0.7741130  24.0684247
   9.9152309   1.0475902  22.6145649  11.4496005  44.3402624  40.7615328
  10.9595788  43.7387419  41.3221407  11.5369165  43.8749409  39.9296212
  53.6577082  21.8486500  52.8058672  52.8969622  21.2796021  52.9228354
  53.9865208  21.6325927  51.9332695  66.0471678  55.0492239   2.1077211
  66.8130159  54.4954824   1.9557951  66.0095215  55.6214523   1.3413218
  67.4998140   0.7814451  57.7799749  68.1501961   0.7935535  58.4821796
  67.5553036  -0.1026637  57.4173403   6.3117284  65.9210777   8.2792062
   6.5581328  65.6648684   7.3904574   5.7774419  65.1939440   8.5986513
  48.9745331  11.2777996  63.3020926  49.7981167  11.4722359  63.7494612
  48.8989162  10.3244758  63.3431721  44.3429995  15.9241557  56.7892790
  44.4679689  16.8564236  56.6118193  45.1576948  15.5138195  56.4992332
  15.8634865  50.1542950  63.0510569  15.2056992  50.4973125  62.4461699
  15.4663491  50.2507353  63.9166307  67.9688311  60.0384235   6.9645280
  67.7809381  60.0740528   7.9024291  68.7978554  59.5637512   6.9042021
  49.8704100  55.3182459   8.7784696  49.4040155  55.5527401   7.9761487
  50.0310421  56.1546659   9.2153060  78.1748390  56.7482853  32.9449368
  77.6133966  56.6942835  33.7183046  78.8840771  57.3363924  33.2044435
  45.8511305  18.7381709  64.4043970  45.0102568  19.1497445  64.2049789
  46.0647821  18.2364750  63.6177015  48.0006123   2.9743955  29.7755980
  47.5065851   3.7538657  29.5214462  47.9050303   2.9298922  30.7269740
  67.2372055  23.3842564  33.2411242  66.3263798  23.1896496  33.0203128
  67.7405691  22.6912069  32.8138781  70.4092550  58.5464716  11.6584456
  69.5501089  58.8438272  11.9579172  70.5740690  59.0527725  10.8630049
  49.5780420  30.3870225  57.9471779  48.9229536  29.8151135  58.3471966
  50.2965164  29.8000908  57.7115202  61.2683487  26.9671035  50.5833054
  61.2306499  26.9303417  51.5390587  61.7016983  26.1523271  50.3291845
   6.2902611  56.5267611  30.2367663   6.6037679  55.8948040  30.8837366
   6.4893854  57.3808908  30.6202292   4.6538562  53.3543921   5.6741714
   3.9509380  53.0639124   6.2553442   4.8541883  52.5869036   5.1383913
   4.0010813  48.9889574   0.7795460   3.0488962  49.0802336   0.7442740
   4.1726625  48.5982609   1.6363709  49.2434645  17.0438898  53.5218334
  49.7624588  17.0415950  52.7175522  49.7489691  16.5098286  54.1345978
  19.9928141  76.8147135  54.3200064  20.1124120  77.5277710  53.6927271
  20.8810878  76.5818644  54.5901585  73.2305002  60.7960367  29.4195104
  73.7583685  60.9083509  30.2100611  72.3253489  60.8469343  29.7266698
  19.0559375  71.9246531  26.5119839  19.1551542  72.5055885  27.2662377
  19.2430437  71.0512686  26.8561053  59.8495722  26.8277979  65.2104759
  59.5275259  26.9131804  64.3131304  59.2511320  26.2038875  65.6213713
  12.3805711  76.9608710  24.2264414  11.9823453  76.2500583  24.7288275
  11.8195507  77.7176378  24.3961239  62.8895473  34.3544674  58.1120443
  62.1925592  33.6994886  58.0740499  62.5189686  35.0687718  58.6303806
  61.5278721  32.4802113  64.3056679  61.3973665  33.1446075  64.9822569
  61.3204956  31.6525745  64.7395372  50.3351212  37.6233411  63.7303829
  50.9634542  37.4351811  63.0332279  50.1258135  38.5508633  63.6202574
  80.6329823  54.5036316  23.8039947  81.0111237  53.6247921  23.7741804
  81.2931633  55.0333929  24.2509198  48.6473513  15.4097712  64.4824028
  47.7800941  15.0546861  64.2874289  49.2563248  14.7786367  64.0989304
  15.6930804  66.7803717  15.7767653  16.5648735  67.1081018  15.5558538
  15.4851174  66.1619377  15.0763893  46.1324549   8.3537459  59.1831636
  45.4506922   8.1787032  59.8318481  45.9929180   7.6930112  58.5047913
  48.0952311  23.0251956  60.1535130  48.5212421  23.7665391  59.7232103
  47.5175905  22.6591349  59.4837618  54.7395134  26.1867642  62.3657656
  55.2035570  25.6846833  63.0357027  53.8185644  25.9568405  62.4891472
  49.2520189  19.9651623  51.1303473  49.2989779  20.5773044  51.8647289
  48.5427475  19.3659580  51.3629866  44.3812084  39.6042466  62.0980263
  45.0818157  40.1393270  61.7251062  43.5745192  40.0183821  61.7914677
  42.8534222  21.6741371  14.5766580  43.0623436  21.7842102  13.6490440
  43.6475563  21.9485378  15.0352287  45.2798462  17.3250163  49.2082214
  44.7835922  16.5331483  49.0010786  46.1064100  17.0025635  49.5674658
  70.6821823  74.6971083   8.1767094  70.1086378  73.9536715   7.9907537
  70.0935507  75.3782558   8.5019392  50.9565687  21.3065171  55.3045130
  50.2989769  21.7407417  55.8478880  51.7339182  21.8597555  55.3812313
   3.3168390   7.0870775   2.1307029   4.2718491   7.1348321   2.0870364
   3.0163854   7.8646982   1.6603148  30.2494907  41.3671446  65.7261562
  30.3663516  42.0440054  66.3928175  30.5330276  41.7819309  64.9114227
  44.1573429  23.1854415  61.7695522  45.0069332  22.9689813  61.3853979
  43.5359001  22.6205468  61.3102722  62.7290821  15.1366699  42.7054262
  63.0945921  14.2527747  42.7423429  61.9405174  15.0925398  43.2462168
  61.3464785  37.3215199  59.7181368  61.8191910  37.8936028  60.3226995
  60.6800222  36.8989539  60.2598953  69.7502422  60.4140902   9.5556080
  68.8386011  60.7057810   9.5479310  70.0579262  60.5662251   8.6620653
   6.0829765  67.6547813   3.4489980   5.5967689  68.4291172   3.1657353
   6.9968271  67.8604507   3.2519993   8.4399319   7.7514529  29.0150595
   9.2599058   8.0377477  29.4174385   7.8830552   7.5068194  29.7541618
  70.5322599  70.1956081   1.2036022  71.3913536  70.2704620   0.7881577
  70.0624657  70.9818983   0.9256367  73.2921505  15.6959033  55.1684809
  72.3490477  15.8137047  55.0548315  73.4822416  16.0920227  56.0188818
  77.9495001  68.5709858   7.0176220  78.2009315  67.7064705   7.3426330
  77.9915237  68.4901762   6.0647655  54.8409033  52.8069210  13.0309701
  55.1274920  51.9506025  13.3484864  54.1024399  53.0366421  13.5950041
   6.4216298  46.7991686   6.6088259   5.7890773  46.0855961   6.6920382
   5.8925509  47.5624275   6.3770044   3.2410958  56.1450911  26.4705372
   3.9443821  55.7024002  26.9455576   3.4727454  56.0407209  25.5476737
  13.4716690  72.8432226   0.6210529  14.2239404  72.9012871   0.0320298
  13.5550773  71.9827461   1.0319762  44.1236687  29.0936351  61.1663437
  43.9042330  29.7863126  60.5432224  43.4988499  29.2087722  61.8822861
  33.4920621  50.5654144  60.7550907  34.2375994  50.0172281  60.9998322
  33.0080175  50.0406551  60.1174688  68.5904551  55.2488136  14.0443563
  68.7512112  54.5395756  14.6667457  69.4411850  55.4051590  13.6344278
  29.9563003  53.5316610  23.4047914  30.5099249  52.8959227  22.9513955
  30.5058527  54.3108559  23.4889102  80.3293324  66.6282272  19.0719974
  81.0710335  67.1888399  18.8443482  80.1995087  66.0775232  18.2999229
  13.5000849  24.7612882  21.9618344  12.5773895  24.8606396  21.7273235
  13.8284063  25.6580138  22.0275521  50.4015636  28.3216500  54.5753908
  50.9207630  28.6151266  55.3240824  50.9410572  28.5310936  53.8129520
  44.5458031  10.5420172  65.3826618  45.2751780  10.0942051  64.9540520
  43.7884474  10.3495216  64.8298645  43.6336422  26.4940500  60.0118303
  43.8779259  27.2667503  60.5212355  42.9049873  26.1075163  60.4975128
   6.2967628  56.8532372  20.0374746   6.0986239  57.4096537  19.2842305
   7.0426762  56.3241482  19.7547936   3.5001874  63.7677860  12.4521518
   3.3723742  63.1429720  11.7383564   2.6522881  63.8022470  12.8949952
  58.5463428   8.7848800  56.0094261  59.1184950   9.5320916  55.8346367
  57.9209709   8.7874001  55.2847624  78.7572336  60.5569220  12.1539164
  78.7110090  61.0216761  11.3183939  77.9560375  60.0339079  12.1817148
  45.7062006  37.4475551  66.2642670  45.7842255  38.2466078  65.7430601
  45.4324675  37.7517915  67.1295691  30.4957438  19.6065664  36.8233848
  31.4205360  19.4535494  36.6295385  30.0914431  19.7461629  35.9670663
  63.8745975  56.7168617   2.6782227  64.2828035  57.2280455   1.9794405
  64.5806599  56.5624666   3.3058158  64.4402456  27.5920153  56.3150311
  65.1588345  26.9614673  56.3626671  64.8047876  28.3346748  55.8335781
  74.7440672  69.9428988   5.9656751  73.8278675  69.7390795   6.1534607
  75.1171494  70.1743364   6.8162507  69.3244219  63.5810518   9.2734098
  69.5864010  63.4101152   8.3687663  68.8718414  64.4236946   9.2365539
   8.4803575  70.5738974  21.4670110   8.6527759  71.5064478  21.3371778
   9.2528445  70.2496958  21.9300294  31.8946242  67.3433733  10.0890970
  32.7155352  67.4377012  10.5722523  32.1403933  66.8824244   9.2870027
  37.8155756  35.5347991  62.7236509  37.0291090  35.0528693  62.4678278
  38.1678534  35.8727002  61.9002676  21.1782813  54.2627382  66.1856079
  20.2225733  54.3158245  66.1797047  21.3748908  53.5514021  66.7951822
  38.0780983   3.1398132  22.4731874  38.6125350   2.5656921  21.9245553
  37.9548502   2.6483601  23.2852912  28.4441280  69.7413731  60.8884764
  28.0728054  68.9171839  60.5737352  29.3895173  69.6332693  60.7846308
  62.3503542  25.6477094  64.4827414  62.4644184  24.9206400  65.0947809
  61.6215515  26.1525083  64.8436546  23.3254194   7.6803631  12.1232319
  22.9689074   7.6756066  11.2349141  24.2644882   7.5373715  12.0052016
  31.6570878  23.5808325  63.9905310  31.1974168  24.0657806  64.6759224
  32.5439191  23.4660888  64.3319941  64.1070843  18.8639140  59.7965956
  63.3208561  19.3357170  59.5218515  63.7788963  18.0376756  60.1513529
  42.7303028  37.7717257  64.2204666  41.9791222  37.3603702  63.7929773
  43.0434132  38.4165263  63.5860968  67.2852707   1.0371362  65.7952547
  67.5457954   1.9580889  65.7809734  66.5937805   0.9940515  66.4557219
  67.3558426  74.2855024   5.4054165  67.5404882  75.0513124   4.8616609
  68.0846453  74.2503071   6.0249639  49.4756937  44.6809196  11.4454710
  48.9102268  45.2961302  10.9785664  50.0579786  44.3314934  10.7708752
  38.2965899  25.5407643  53.6049604  39.1501689  25.2018714  53.3351707
  38.2949185  26.4503622  53.3068609  49.4109964  21.9609594  52.8752136
  49.8730898  21.7109609  53.6753368  49.7435045  22.8346920  52.6696396
  21.5671324  66.7115507   0.5882969  20.6288886  66.5255294   0.6246986
  21.7378401  66.9025216  -0.3339920  58.4760618  58.0300903   4.4538611
  58.8369656  58.6455727   3.8157675  59.2149162  57.4692822   4.6901137
  67.3767757  41.6758776  17.7571344  67.4802685  42.6243114  17.6797092
  68.2627535  41.3289452  17.6526356  75.1595879  52.8909731  50.6190062
  76.0896969  52.6883316  50.7193327  75.0968456  53.8274288  50.8070040
  71.4365292  24.6336555  54.5474148  70.5347157  24.9545407  54.5472336
  71.6630840  24.5564103  55.4742050  53.8416815  30.5688977  54.4656324
  54.4170189  30.4828548  53.7054873  54.0412664  31.4353061  54.8202229
  23.5862374  76.9853973  21.2695909  23.1319571  76.7037535  22.0636559
  23.8368368  77.8922319  21.4458847  63.9847517  14.7309327  58.6339617
  64.4606829  15.4110801  59.1105318  64.5222378  13.9456069  58.7369251
  52.5669956  34.3097734  52.5886869  52.4991131  34.3083453  53.5434723
  52.9232502  35.1721740  52.3751879  52.1699858  63.8803387  21.3984537
  53.0578232  63.7866306  21.0532045  52.0719051  63.1494141  22.0086670
  46.3067579  19.3308353  54.5866346  46.2884855  18.6116815  53.9551926
  45.6306076  19.1057122  55.2256727  76.9115067  42.1756601  11.5885675
  76.5268803  43.0220175  11.8165457  77.0033550  41.7209816  12.4258637
  72.9855156  58.6575842  15.7438910  73.9416885  58.6911917  15.7149756
  72.7108002  58.8883066  14.8564637  70.2838993  47.4260283  61.6237354
  69.7578573  46.7241955  61.2404156  69.6867704  47.8723288  62.2241402
  62.0625544  36.6669893  62.3399782  62.4160957  35.7782626  62.3774719
  62.5771999  37.1567488  62.9814672  62.4296570  13.3916676  55.4484940
  62.1676922  14.1931939  55.9014416  61.8358994  13.3346224  54.6998787
  54.9417162  73.7399960  22.6504731  55.6252241  73.4961414  23.2746410
  55.3231430  74.4586849  22.1462607  35.4711151  38.2905889  60.3497934
  34.9067497  39.0070891  60.6402254  36.3127685  38.7079382  60.1663017
  75.2539778  55.9873009  14.6321940  75.4494762  56.8955755  14.8625219
  74.4919777  55.7634115  15.1664782  59.5435381  72.8021336  28.7808299
  59.6641350  71.8577719  28.8801527  58.9651775  72.8913784  28.0233598
  46.4818048  38.9526486  63.7915230  45.5893087  38.7693930  63.4981012
  46.5185642  39.9062800  63.8654709  41.7979717  62.3085451   9.4388896
  42.4846792  61.6684532   9.2519397  42.1768999  63.1487083   9.1804892
   0.1386882  47.3682404  62.4590683  -0.4659632  46.6688824  62.2110081
   0.9378833  47.1795368  61.9672203   4.4086194  48.6286402  16.9881332
   3.5498238  48.7179089  17.4013317   4.3871593  47.7653599  16.5751898
  43.1087685  17.4193072  61.3879585  43.8861704  17.9482865  61.5670061
  42.5296974  17.5851142  62.1318817  76.3666773  65.3951740   2.5450096
  77.1559715  65.8211613   2.2106655  76.3428211  65.6293917   3.4728050
  31.7589569   0.8571768  14.4851089  30.9180498   0.6787387  14.0640783
  31.5279770   1.2850127  15.3096318  45.6670141  11.9791555   4.4120806
  46.3789654  12.5981522   4.5739505  45.5432892  11.5321267   5.2493906
   1.2861036  65.3154421  10.6554985   0.8487891  65.7270050  11.4008868
   1.6765746  66.0449266  10.1742315  67.0870590  73.0368185   0.0611180
  66.8860292  73.1942177   0.9836388  67.6306629  73.7815380  -0.1960053
  80.6935310  60.7440186  22.3470235  80.5151558  59.9642086  21.8213749
  80.7438660  61.4562368  21.7094946  66.1930847  49.2618513  12.1137702
  66.1253357  48.6248446  12.8250122  66.3556576  50.0960779  12.5540721
  11.9497907  48.3620262  13.9421904  11.7855453  49.2138577  14.3467116
  11.7335236  48.4898186  13.0185390  57.6168823  38.8423228  51.4348316
  57.8674603  39.0411353  52.3370028  57.9082870  37.9408169  51.2984371
  54.1479349  11.2097013  53.6967897  54.8123741  11.4949429  54.3239975
  53.4510136  10.8389533  54.2381573  73.0935097  75.3247738   7.3926657
  73.6991405  75.5417395   8.1014442  72.2309875  75.3198290   7.8077185
  55.9266615  14.1479826  48.5723639  55.2433109  13.4793532  48.5255289
  56.1394453  14.3374062  47.6585388  58.6655140  37.7596831  56.5440035
  59.4968605  37.2852468  56.5428734  58.3674002  37.7183723  57.4526596
   5.6045640  54.8652124  27.7622843   5.7547444  55.2976894  28.6029053
   5.8084571  53.9445591  27.9267836   3.9465839  59.8524523   2.1102689
   3.6043042  58.9607668   2.1733330   4.7666773  59.7604609   1.6252777
  66.7776442   3.5064614  60.3553915  66.1805010   3.9754215  60.9382534
  67.2554445   2.9098526  60.9315825   3.7083197  59.4649267  12.6268220
   3.1834483  59.6598816  11.8504632   4.3255466  58.7934971  12.3362315
  26.4542794   1.0299291  15.7202601  25.5589080   1.2510562  15.4640496
  26.3506866   0.4190569  16.4498734  78.8237715  53.5841274  18.5714698
  78.9973640  53.7653303  19.4951928  79.5157337  54.0498590  18.1018806
  44.9249697  62.3379135   7.8682709  44.4053173  63.1414461   7.8452307
  45.7923460  62.6218081   8.1568766  75.2013588  63.4536791   0.3757599
  75.2376986  63.6233616   1.3170986  74.3040657  63.6753941   0.1268870
  68.1803179   8.3787113  19.6737099  68.5652542   7.8077072  19.0088713
  68.8797140   8.9934194  19.8955417  35.9036899   2.4277332  58.9028263
  36.1295104   2.5409612  57.9795647  35.7537460   3.3170569  59.2235327
  55.4093885  16.0995495  60.6277657  54.7875834  15.9000397  59.9279165
  54.8759985  16.4973652  61.3158560  44.0044546  18.6067033  55.8999538
  43.7781382  19.5277190  56.0293484  43.1891346  18.1339383  56.0672235
  56.1124468  71.8274927   5.9413207  56.5503550  72.4839783   5.3995645
  56.6895580  71.7168570   6.6969228  60.0762367  30.0956893  51.4159679
  60.2055836  29.2250466  51.7921162  59.5352936  29.9438405  50.6410170
  78.5107613  76.2585402   3.9542109  79.2048216  76.8513346   3.6659288
  78.6174774  76.2088108   4.9041426  40.9862375   7.5816655  53.2029629
  41.3333893   6.7862749  52.7991390  40.8316517   7.3389411  54.1158819
  54.8261642  18.9116204  65.7277918  54.3001461  19.3367636  65.0504494
  55.2816010  18.2054770  65.2693510  56.8118620  49.7894478  17.4898434
  56.6482162  50.0900364  16.5959203  56.3242865  48.9686918  17.5595820
  36.0176969  33.6926365  62.1079445  35.9722257  33.0009198  62.7680159
  35.2758193  33.5197425  61.5283251  48.1325722  65.2418518  11.1973310
  47.4738026  65.3463650  10.5107939  48.7559462  65.9512377  11.0410976
  36.0075307  27.9178357  58.6502123  36.2264371  28.0524707  59.5722675
  36.3674855  27.0556784  58.4420013  32.0029736  26.2270403  58.6866522
  32.4958754  25.7627296  58.0101204  31.9064236  27.1159959  58.3450890
  71.5464640  16.5897787  46.5777874  70.6415129  16.6788828  46.8767118
  72.0682812  16.9972086  47.2691202  61.6523647  15.1556790  57.3876810
  62.4737692  15.3084016  57.8548050  60.9750366  15.4768038  57.9829407
  18.6364365  22.0566988   5.9551620  19.4394290  21.5719461   5.7642460
  18.2775223  21.6289139   6.7326021  57.5744295  13.5433280  54.2444372
  57.5151300  13.5970950  55.1982832  57.3471451  14.4220459  53.9404202
   4.8494765  43.8733959  10.2438486   4.6648952  43.7345171  11.1727595
   5.7918328  43.7265825  10.1623464  49.2454433  26.0425591  56.1079073
  49.2935133  26.9961214  56.1760378  49.7972012  25.8280611  55.3557205
  48.3168936   3.5277355  49.1264200  48.2723522   4.0990782  49.8931122
  49.0656996   2.9563165  49.2967176  38.0805039  42.2632217  66.0530376
  38.0749416  41.3530540  65.7567453  38.5385203  42.7380753  65.3595209
  58.1361389  19.2984128  48.3785725  58.4097099  18.8630104  47.5712204
  58.8225365  19.0844870  49.0104914  75.5615902  60.5644894   2.6081058
  76.1391401  61.2370634   2.9690960  75.7331944  60.5816126   1.6665693
  12.0319963  51.8120956   7.7109557  11.3462806  51.5164185   7.1121240
  12.8181100  51.3482666   7.4226511   5.7572764  69.5908165  20.2697515
   5.3419602  69.6646500  19.4105124   6.1672986  70.4440260  20.4116964
  43.1655979  10.6145597  52.9805470  42.3050022  10.2138174  52.8580379
  43.6562824  10.3730595  52.1949673  51.6970348  51.3254356   9.1895711
  50.8410883  51.7458105   9.1066551  52.1883488  51.8968630   9.7797501
  37.6523495  29.0606403  62.8506660  37.2448993  29.2633510  63.6927652
  37.0317602  28.4730411  62.4195910  79.5252466  17.4600041   2.0129427
  79.6705055  17.4896169   2.9585934  78.5974646  17.6700282   1.9064423
  70.1683903  64.2867851  20.8661771  70.5745935  64.0964127  20.0206065
  69.2686653  64.5316744  20.6499553  52.3231030  25.4786944  63.5491657
  52.8420591  24.8505425  64.0514994  51.4783812  25.5051970  63.9985847
  69.2998934  31.8378806  60.5374289  70.1835489  31.9581461  60.8851624
  69.1660309  32.5884676  59.9587011  60.5959558  73.2383251  25.6953311
  59.9069071  73.4415579  26.3278961  60.2483416  72.5031519  25.1904392
   7.3910475  57.6391268  22.5086331   7.3397756  57.2371674  21.6414356
   8.1639886  58.2021570  22.4663305  28.5848022  50.9844351  63.6140871
  28.9781070  50.1224661  63.7503147  29.2602706  51.4865685  63.1582022
  25.2842093   8.7639469   1.6588753  25.2437687   8.6125726   0.7145860
  26.2091970   8.6547273   1.8795557  -0.0298623  68.5681343   3.5593247
  -0.4352025  68.2800961   4.3772253   0.5384609  69.2942047   3.8163710
  53.2570553  40.4646730  49.1870308  52.4625826  40.8062220  49.5973825
  53.2024479  39.5171428  49.3112803  42.2226858  18.9031374  10.3433919
  42.9457331  19.4793701  10.5911636  42.2563124  18.8742185   9.3872195
  77.6857471  52.0805120  55.8332777  78.5026836  52.3791313  55.4336929
  77.1305799  52.8599834  55.8545256  59.5382071  39.4076061  47.3470449
  60.3232479  39.5140004  47.8842783  58.8154602  39.4170165  47.9745626
  69.0506172  68.4831667   7.7604598  69.4824600  69.3229628   7.6039547
  68.4007549  68.6705732   8.4378016  12.7447331  58.1415701  26.8490434
  12.4131441  58.9759541  27.1808314  12.1268082  57.4896860  27.1798730
  55.6828737  37.2905636  55.3661633  56.1976433  36.4894795  55.4637051
  56.2936687  37.9232049  54.9881029  33.7742305  73.3276987  13.9791191
  34.1422796  72.9073906  14.7563660  33.2457685  72.6452398  13.5653448
  58.3222246  25.9498811  50.1270628  58.0845690  25.9825325  49.2004061
  59.2120838  25.5972719  50.1338196  14.3986726  12.7351177  13.6481714
  14.5795047  12.8318834  14.5831406  13.5953271  12.2159207  13.6120749
  26.4460444   5.5695438   3.3219230  25.6518292   6.0331303   3.5875168
  27.0619464   6.2640274   3.0882782  19.7095382   1.0519993  41.5250778
  20.3783607   1.6105913  41.1289930  20.0090361   0.1596512  41.3511562
  54.8523903  33.1345510  54.8818874  54.6450472  33.5547233  55.7165718
  55.7056284  32.7250981  55.0252867   1.5193549  44.1719675  40.3792477
   0.9659162  44.8512840  39.9939299   1.3830191  44.2585611  41.3227224
  17.5889397   0.2314710  12.1639609  18.0336833   0.8621089  11.5976298
  17.5333595   0.6697099  13.0131304  62.4616241  51.9597340  56.4949608
  62.8205585  51.2325382  55.9864473  63.0341864  52.6994896  56.2920666
  49.2235994  41.6526031  55.9460592  48.8343239  40.9397745  55.4395294
  48.6948824  41.6968298  56.7427588  81.0525608   4.2791298  10.7031453
  81.4079762   3.7294498  11.4015460  81.6499710   4.1471645   9.9669945
  16.7341089  15.9742880  12.0817065  17.6761067  15.8067632  12.0533133
  16.6484010  16.7725229  12.6029623  76.6390371  77.3064375   1.4896379
  77.4411631  76.9357443   1.8576179  76.4857912  76.8009090   0.6913980
  50.9365559  23.2277536  61.8240070  51.3835382  23.1533265  62.6671553
  50.1436520  22.7013159  61.9259739   5.6720799  64.8793745   2.9498896
   5.9054887  65.7477236   2.6216894   4.9382257  65.0371075   3.5438669
  62.4688911   5.2524918   6.1223048  62.3338890   5.1086020   7.0589483
  62.4744034   6.2046772   6.0246080  46.0698652  41.6576815  56.8221426
  45.8260012  41.6884613  55.8970404  45.4567957  41.0337353  57.2108173
  40.0051022  27.4501014  62.9644251  39.3083882  28.0958652  62.8469181
  39.8273277  27.0589304  63.8197708  48.5333395  39.7101092  54.0895510
  47.9882050  38.9668489  54.3476725  48.1396198  40.0247145  53.2757711
   5.3693342  16.1268532  27.9949498   5.1738852  16.4491773  28.8748002
   4.8024386  16.6410422  27.4200845  56.7475224  22.6410532  37.8859448
  57.5462198  22.9127526  38.3381486  56.0835266  22.6033735  38.5743666
  63.2015896  16.2038875  18.3222842  62.2804928  16.0621321  18.1038272
  63.2458448  17.1220040  18.5893703  27.5741839  65.2655172  58.2207775
  27.0339680  64.4784307  58.2907438  27.9603720  65.3690481  59.0904760
  49.9626017  42.7955151  59.9325037  49.2796993  42.7860594  59.2618418
  50.1215839  43.7245560  60.0993586   6.8606496   1.7965575  16.5894544
   6.7481226   0.8966031  16.8954802   6.0068411   2.2058330  16.7299390
  32.5593591  66.3764858   7.5769275  32.6843810  65.4881477   7.2430855
  32.3067522  66.8878937   6.8082350  47.2040892  24.6665168  56.8415833
  46.7845201  24.5445514  55.9899282  48.0009651  25.1600385  56.6475201
  47.9451847  50.9200525  16.4507222  47.5977612  51.7948055  16.2765312
  47.2794342  50.5023575  16.9971097  17.5391066  55.3588533   1.7252490
  18.0399024  55.5193233   0.9254454  16.6532278  55.1656723   1.4184445
  31.5460110  23.3241916   3.0128530  31.5099025  24.1430163   3.5072777
  32.4585843  23.2535744   2.7327582  38.2342434  11.1665595  10.5119574
  37.4010515  10.9620321  10.0874662  38.1425047  10.8195329  11.3993073
  55.5986118  69.4785166  27.4212599  55.4069614  70.2079105  26.8317819
  55.4901886  68.6973333  26.8788314  11.9198263  13.5996222   7.4558192
  12.7935100  13.2095826   7.4837166  11.3576090  12.9037058   7.1154600
   2.4331413  61.3694859  18.6552203   2.8092206  60.6210661  19.1185403
   3.0863294  62.0627308  18.7500274  37.1337819   3.0160242   7.6402843
  37.5886512   2.5540239   8.3444732  37.2967315   2.4847513   6.8609071
  12.9826880  49.5044518  35.9279919  13.1580198  49.9473906  36.7582273
  13.8257694  49.5027113  35.4747343  62.5524235  23.5380340  66.2409353
  61.7962646  23.4853888  66.8254709  62.9410028  22.6638293  66.2726593
  13.0620039   9.9364799  21.0125351  13.5439694  10.4476297  20.3624082
  13.0261242   9.0536141  20.6444430  24.5386553  75.8676672   1.3059077
  24.2906737  75.6703949   2.2091360  25.4484582  75.5779123   1.2385868
  77.9369593  68.5128641   4.1167021  78.3703232  69.3656015   4.1523015
  78.2420731  68.1231594   3.2973930   9.0556598  74.7244024   1.7331322
   9.0490425  73.7677622   1.7652103   9.8591566  74.9426603   1.2609163
  62.0799971  71.0858059  20.4001999  61.5936232  70.5410910  21.0190344
  62.9326773  71.2165880  20.8150101  -0.0445261  58.6763144  16.9453752
   0.2171700  58.0241442  17.5953150   0.6291304  58.6225939  16.2674868
  51.6881561  41.9517660  50.8704901  52.4042892  42.2307873  51.4410496
  50.9775066  42.5639963  51.0612392  66.5389776  39.6110129  54.4549322
  66.4561844  40.5580568  54.3431711  65.6640577  39.2704439  54.2684984
  64.0292597  35.9224820  46.9366932  63.4850645  36.1991739  47.6739311
  63.6808252  35.0657439  46.6900635  63.2347441  41.3659143  59.1099644
  62.5516796  40.8843899  59.5766401  62.9610968  42.2816277  59.1630125
  49.6388865  24.9970150  58.9092493  49.6606779  25.1341367  57.9621744
  50.5207157  24.6957588  59.1279984  35.8518863  19.1731453   5.7260305
  35.3243494  19.9415874   5.9438229  36.7030406  19.3449605   6.1288267
  68.8230562  39.7354150  48.5825300  67.9143381  40.0067472  48.7123156
  68.8965654  38.9086366  49.0592575  76.5865231  37.3489189  62.5124550
  77.2952700  37.6634717  61.9512415  76.6172743  37.9201031  63.2799435
  73.4093571  28.0272198  50.4369497  73.4899092  27.0737767  50.4632187
  72.7688360  28.2323265  51.1180496  52.9665756  31.7593169  51.2835360
  52.6016665  32.3854065  51.9089031  53.2662106  32.2987103  50.5517578
   0.9014449  43.4279156  55.5708218   0.2289656  42.8254271  55.2530003
   0.6331357  44.2839813  55.2370596  69.5207405  70.7654190  10.8904159
  70.1302004  70.4927635  10.2045214  68.7590551  70.1976013  10.7735801
  31.1776638  18.1549966   4.4341880  31.2785172  18.9322340   3.8846767
  30.2308369  18.0399263   4.5148674  58.5006857  35.8000350  47.6866150
  58.4610415  34.8533845  47.8226852  58.9328718  36.1369276  48.4714413
  59.7063396  60.4431494  66.9339319  60.5704043  60.2434857  67.2941528
  59.8522685  61.2007340  66.3673619  47.0696020  31.5034056  59.0057611
  47.4177265  30.7190871  59.4298887  46.9422436  31.2454891  58.0928040
  76.0081673  61.8100643  58.7253904  75.4379988  61.3302946  59.3261909
  75.5589104  62.6431561  58.5827112  65.0469923  68.3799553   2.4733156
  65.7690907  69.0057373   2.4166939  64.3506432  68.7692738   1.9443926
  38.2567620   1.4971526   5.6664729  39.0460205   1.6810185   5.1570666
  37.6598549   1.0840086   5.0425768  56.9036341  27.8016829  51.7513657
  57.4002600  27.8424454  52.5686359  57.3798847  27.1695805  51.2129736
  20.2374291   4.2919919   8.8772321  20.4635930   4.8426285   8.1276441
  19.6244812   3.6470112   8.5243505  30.3184271  21.1417985  11.0478294
  29.5033813  20.7023525  10.8052993  30.0368881  21.9219971  11.5255916
   6.8232000  52.3016691  19.5859587   7.3119307  52.4368429  20.3978109
   6.4638931  51.4181757  19.6669698  39.8811960  11.0510480   5.2553451
  39.3299174  10.8908296   6.0212791  40.1189899  10.1775312   4.9444547
  29.7977877  15.7687986   7.7896154  29.1515923  15.2177000   8.2311523
  30.5063868  15.1683903   7.5580353   0.1350815  60.8854437   7.7478963
   0.7078516  60.1546192   7.5153935  -0.6564594  60.4699469   8.0900306
  73.0231810  36.4466691  58.6739206  73.1854343  37.3399687  58.9771080
  73.3073235  35.8918667  59.4003487   6.2286973   3.7823775  14.6782804
   6.3887346   3.2894480  15.4830420   6.8683451   4.4940758  14.7021246
  29.4075346  41.7052841  61.3755465  28.6122823  41.9639206  60.9098053
  30.0347614  42.4025106  61.1839962  36.5794373   0.4876927   3.7090582
  35.8315134   0.3643854   4.2935568  36.2759709   1.1255331   3.0630702
  51.5587521  25.3906989  53.6237526  51.7498589  26.2473512  53.2418394
  51.4119101  24.8196626  52.8697062  37.7723145  39.8899889  64.4380665
  38.0934668  40.0255060  63.5465908  38.1020522  39.0252805  64.6825743
  36.3804913  20.4734945  56.7017555  37.1585059  20.3184724  57.2373772
  35.9354019  19.6264887  56.6750956  40.2173042  18.2563818   6.9133252
  41.0646296  17.8320992   7.0484179  39.6316767  17.8253961   7.5358415
  53.3816528  54.2206097  64.1054916  54.2050505  53.7619162  63.9386082
  53.4530830  55.0317240  63.6022854  23.8204336  24.8060775   1.9896802
  23.7391019  25.3874397   2.7457449  24.6278930  24.3173766   2.1490887
  49.6029425  38.8064027  48.6965609  49.1239262  38.9068818  49.5191669
  49.7682333  39.7028804  48.4046078  28.8254070  13.5805380   9.6041518
  29.5614505  13.0709648   9.9429864  28.5279489  14.0982568  10.3522944
  51.6457129  37.0116687  49.2064857  51.2016773  36.1654639  49.2613029
  50.9520388  37.6320887  48.9825964  51.2845516  39.7272778  57.1112156
  51.6742992  40.5330610  56.7720413  51.8896723  39.0364647  56.8413210
  69.5145893  22.5181437  42.9919386  69.6373510  21.7741394  43.5815287
  69.1354799  22.1363616  42.2002602   6.2101507  72.2892857   5.2918655
   6.3915718  73.1208897   4.8539710   5.2902716  72.3499393   5.5495012
  59.7328329  58.1042051  63.8784695  59.9989891  58.9236403  64.2955065
  60.5560923  57.6813745  63.6341429  66.4973307  71.1050081  11.2861419
  66.3170910  71.2163877  12.2195983  66.6652632  71.9917393  10.9671628
  19.6686578  47.0234871  24.8954582  19.6128559  47.7489138  25.5174541
  19.5425677  46.2394810  25.4299331   4.1389489  64.3437815  23.3123684
   3.5223800  63.6860704  22.9906678   4.7470343  64.4778824  22.5854015
  56.2563419  34.4354606  65.8107233  56.2603998  35.3862023  65.6998062
  56.4448547  34.0916467  64.9375200  70.2329350  50.4514647  50.2728033
  69.9066639  49.7644663  50.8540201  70.3736877  51.2041998  50.8471012
   1.1416990  75.6075954  17.6682913   0.7440874  75.6653690  18.5370827
   2.0209071  75.2652216  17.8295529  27.6115012  17.0199478   6.4134187
  27.2415757  17.4730766   5.6557506  28.4944415  17.3793578   6.4998633
  10.9528172   3.4323582  10.0751042  11.7929018   3.1641969  10.4473662
  10.3561842   2.7150518  10.2889538  46.7213821  74.3629503  56.1666775
  47.2761917  73.9348030  55.5146742  47.3146105  74.9462175  56.6400862
   4.3826476  69.6437502   5.2646583   5.0129873  70.3410339   5.0838310
   3.6669135  69.8023701   4.6491933  47.3513985   3.2514569  20.8211470
  46.9953823   3.0214009  19.9629164  48.2511425   3.5244894  20.6418514
  16.2045896   7.2188419  24.8525190  16.7193913   6.5401340  25.2890587
  15.8279395   7.7311367  25.5680060  31.8657899  10.9698558   4.0143326
  31.1658144  11.5007925   4.3942952  32.5624681  10.9869432   4.6705171
  15.5866241  14.6031952   9.9828839  15.8405232  14.9819195  10.8245099
  16.0333574  13.7570488   9.9564707  59.4836712  49.4865942  64.5822525
  58.5376167  49.5643139  64.4591045  59.8044920  50.3877831  64.5480537
   4.9414474  63.2510567   8.6782819   5.8069754  62.8604317   8.7987262
   4.7908732  63.2130957   7.7337617   8.2594979  10.6143928  23.1963587
   8.8039345  10.3636372  23.9426446   8.5538560  11.4968705  22.9709291
  51.7423487  60.3382063   6.7933464  51.7953682  60.3751707   7.7483618
  51.6613626  59.4055319   6.5938818  15.6240702   8.7262648  55.6141853
  14.7849345   8.9477664  56.0179424  16.0164654   9.5721132  55.3978539
  60.7819271  47.9365587  58.7015438  61.6381979  47.9070663  58.2747459
  60.7280540  48.8184929  59.0696812  65.8197403  43.3989954  66.3099957
  66.5488911  43.2474566  65.7086611  66.0719299  44.1817760  66.7997789
  60.8729172  15.3441370  52.0499659  60.5125237  16.2199283  51.9109154
  61.8203592  15.4611254  51.9799376  50.3729677   8.1947821  64.8884106
  50.9712029   7.7851439  64.2634773  49.7733259   7.4928665  65.1413393
  29.4106174   0.8544723  13.0253053  28.8717484   0.0780119  12.8737736
  29.0359569   1.5219244  12.4505270  75.0044680  76.3949060   8.8659960
  75.5925560  76.8659782   9.4563150  75.2024698  76.7479944   7.9986119
  58.8476133  33.2954645  63.5551310  58.8398361  32.3685622  63.3163309
  59.7070837  33.4329772  63.9534235  46.3501072  24.5518780   6.3063169
  46.0473251  24.5487165   7.2143620  45.5488634  24.6186137   5.7869035
  59.3401527  35.9255648  61.2667274  58.5981131  36.2395215  61.7834854
  60.0881624  35.9850931  61.8610096  56.9128275  20.7837391  50.8142900
  57.0141602  19.9936843  51.3451195  56.9710064  21.5035272  51.4425802
  73.5362339  58.6870289  56.3568640  72.9524994  58.2608509  55.7292795
  73.7898684  59.5055819  55.9303999  59.4265509  36.8972421  49.8965168
  58.8765669  36.5386415  50.5930471  59.9421358  37.5798893  50.3259325
  71.1839008  48.3972788  40.9520674  70.9552908  47.7571392  41.6260052
  72.1015835  48.2149315  40.7499790  11.4935946  68.1232643   1.6628130
  11.1268377  67.8847933   2.5141957  12.2518766  67.5483751   1.5591583
  61.9276714  36.8336606  48.3748531  62.0330191  37.7723932  48.2202148
  61.1448908  36.7673755  48.9217472   1.1387277  69.9820089  24.5338058
   1.8074769  70.2913427  23.9228058   1.2364709  69.0298128  24.5339370
  13.9034820  19.7981834   6.9130033  13.0634975  19.3705642   7.0797408
  13.6693680  20.6563640   6.5595210  52.0081615  28.3413672  65.8441591
  51.7767668  28.3357716  64.9153662  52.2256470  29.2545533  66.0313082
  49.9634933  27.6693225  61.0914469  49.5044756  28.3447313  60.5920887
  49.2651749  27.1498346  61.4898348   5.8426660  55.1456308  24.9924326
   5.6115127  54.2735863  24.6725368   5.8479381  55.0575018  25.9455514
  79.1583014  69.0860748  54.8761749  80.0079727  68.8698578  54.4920683
  78.7852955  69.7368908  54.2815828  73.9444447  66.2766981  37.3041534
  73.6957312  65.5137777  36.7823052  74.5493126  66.7631483  36.7440319
  12.8677714  14.8189151   1.5750498  13.0844927  15.0335038   0.6677375
  13.6773622  14.9807918   2.0593956  41.4286280  33.2567668  61.8087816
  41.2019730  33.7175584  61.0009861  42.3457193  33.4826922  61.9641447
  74.2719936  67.8589487  50.4322720  74.3095350  67.7098513  51.3770437
  74.4203711  66.9951820  50.0474024  62.4718523  57.4212503  41.9409513
  62.1482038  56.5242004  42.0232916  61.6929245  57.9675198  42.0462513
  63.0004454  22.2166348   3.0944833  63.7834978  21.7426658   3.3745062
  62.6767206  22.6363921   3.8915020   3.8906375  72.5329161   0.5266818
   3.6296517  73.2253218   1.1338799   3.2614547  72.5949049  -0.1920105
  11.0156012  36.6293049  58.2386065  10.7086539  36.4113975  59.1186810
  10.8132148  37.5594187  58.1378174  75.2927303  34.1539931  65.4534531
  75.7876253  33.3757949  65.1970911  75.9526443  34.7535539  65.8016920
  27.2942114   8.6574650   5.5016488  27.7864861   8.0083191   4.9991471
  27.7564383   9.4811970   5.3465849  45.2843475   1.2205682   6.1303896
  44.6405077   0.6858248   5.6658983  44.8211241   1.5313587   6.9082493
  74.8357058  49.0323544  54.2246771  75.5300999  48.4009171  54.0366888
  74.7038031  49.4964933  53.3979940  52.2177219  37.7737856  66.0067654
  52.4037075  36.8421936  66.1241388  51.5558767  37.8006911  65.3157759
  76.0465622  61.8668652  49.5568800  75.5344868  61.2425852  49.0427876
  76.6442251  62.2650146  48.9240313  20.0937557  73.9583397   8.7785029
  19.4959211  74.4267273   8.1958908  19.7656405  74.1443682   9.6582556
  71.3290119  37.3080015  56.3912773  71.4124346  37.0106769  57.2972965
  72.0693922  37.9013515  56.2647820  53.0343199  18.1204486   0.8346376
  52.4745178  17.3507035   0.7329252  52.7747202  18.7015569   0.1196888
  66.4555883  32.9083419  55.1602125  66.2265968  33.0098820  54.2363691
  65.6724262  33.1894040  55.6333876  34.5303345  40.4238033  61.9140148
  33.8367677  40.3828287  62.5724363  34.6922922  41.3596201  61.7946577
  66.5348577  71.3318205  59.9138451  66.5681553  72.1270466  60.4455757
  67.4435377  71.1786556  59.6548510  73.5858917  62.4949503  24.5653057
  72.7575016  62.3300266  24.1149712  73.4269524  62.2187757  25.4679108
  46.0326958   1.4189255  65.6586361  45.5227280   0.8967462  66.2779045
  46.3544369   0.7843556  65.0182962  64.2782021  68.4891272  33.5912561
  64.9115419  68.1777382  34.2379045  63.4249640  68.2857609  33.9744687
  52.2353840  30.6916881  59.8156738  51.3784647  30.9843588  59.5054007
  52.3579264  29.8345423  59.4076061  70.7663631  66.1139107  50.7660913
  71.0241795  65.6784153  49.9536180  70.4931021  66.9894552  50.4922533
  71.0327101  75.8623457   5.4304147  71.7114544  76.0613394   6.0753489
  71.5126181  75.5255175   4.6737987  53.5600707  26.1319437  66.4679052
  53.8684413  26.6203155  67.2312074  53.1764647  26.7974176  65.8967433
  69.3534327  55.6327248  21.6855192  69.8011923  55.1664257  22.3914289
  69.8784256  56.4213228  21.5486550  70.3294849  71.0594606  47.8265429
  70.9025288  71.8065310  47.6540947  69.7146749  71.3768578  48.4879827
  17.2198570   7.5147742  10.2793050  16.7161596   6.9836527  10.8960962
  16.7745697   7.3946679   9.4405413  17.7813351  28.6272240  12.3362529
  17.1088612  28.4451342  11.6798580  17.6815093  29.5594478  12.5291908
  46.3927746  28.9138150  57.4945021  45.6182337  28.4056807  57.7355814
  46.2774992  29.0984726  56.5623808   0.5104008  76.3736916   0.9295630
   1.1383510  76.8264055   1.4925547  -0.1847790  77.0149422   0.7820860
  33.3060861   1.5659924   2.6668951  34.0591168   2.1260372   2.4784151
  33.2676148   0.9594773   1.9273743  56.4914465  56.8003988  11.3873410
  55.8247709  56.8336296  10.7012868  56.4635849  55.8978271  11.7048693
  18.5084331  74.3439484   0.2904114  18.4703100  74.7276211  -0.5857004
  19.3466294  73.8822889   0.3134435  65.4455662  31.3994336  58.4313202
  64.5542669  31.3437676  58.7758780  65.8257437  32.1592855  58.8721466
  44.3007278  69.7157240  55.4463768  44.2781687  69.5214891  56.3833952
  43.9354086  68.9345598  55.0309849  62.0885038  39.8007607  64.5173025
  62.8362274  39.2051244  64.5658779  62.3430395  40.5492067  65.0570011
  19.7197509  11.9024301  18.3104384  20.6201816  11.5779293  18.3229673
  19.5087838  12.0590746  19.2308664  34.5962214   6.4355290  13.1206989
  35.3019691   6.1017847  13.6745632  33.8887024   5.7993031  13.2249367
  58.5190153   8.3657610  45.3165531  58.5872841   9.1803110  44.8184776
  58.5499811   8.6418217  46.2325573  71.3330603  57.0327759  26.2389874
  71.5930796  56.6097116  25.4206753  70.4592562  57.3809147  26.0615110
  44.7477245  32.3413754   9.9891216  45.5273581  31.9176126  10.3480434
  44.0222836  31.7808008  10.2642965  77.1112871  64.7369862   9.4517648
  77.3701477  64.9308586   8.5508561  76.3632345  65.3114653   9.6149307
   6.1821556  69.7991085  11.2085176   6.7868328  70.4487514  11.5670741
   5.4281259  69.8228741  11.7976761  46.4729691  18.7735558  10.7877457
  46.5706968  18.9649260   9.8549765  47.1412659  18.1123769  10.9678996
  58.3035326  76.5684366  58.7932205  58.9292526  76.9036484  59.4353580
  57.4460983  76.7943478  59.1537762  66.7213774  53.2379055  60.8657360
  67.5576353  53.2484818  61.3313437  66.1285734  53.7380600  61.4266872
  50.2289724  62.8668880  41.4782953  49.4912434  62.2597599  41.5364313
  50.0388336  63.5382843  42.1335077   3.2099590  55.1324463  63.7645817
   4.0459430  54.9429417  64.1905499   2.8125831  55.8123398  64.3087053
  48.5007095  23.3112359   5.0901073  47.8302813  23.5234618   5.7395053
  49.2037916  22.9038811   5.5960453  55.3654528  41.7783642  66.0654974
  54.7272587  41.4944172  66.7199564  54.8898602  42.4093008  65.5251598
  32.2142887   7.1504718  24.5439625  32.4969578   6.5055257  25.1923275
  32.9604983   7.7432990  24.4547415  72.6073027  60.8779335  64.3811655
  72.5949335  59.9445820  64.5931339  72.7054262  60.9061241  63.4294271
  53.4883022  75.0183439  46.6852760  54.1375351  75.6762123  46.9341564
  53.9581013  74.4297314  46.0944700  61.9313240  54.6711445  54.5404577
  62.6178122  54.8695469  55.1773262  62.4002314  54.5369530  53.7168360
  26.2804747  49.8468208  65.7962179  26.0300469  50.6410742  66.2681055
  25.4928493  49.3029976  65.8077240  63.8604212  59.6988535  55.4608727
  64.2079592  58.8996935  55.0649023  63.2680988  60.0559950  54.7991848
  59.2618704  54.7135115  60.1457071  58.6083174  54.6572590  59.4486141
  60.0669146  54.9749374  59.6987295   3.6467722  54.9362373  51.9868851
   3.2591864  54.7225189  51.1381578   3.0097783  54.6199703  52.6275444
  42.6861668  38.7548208  10.8634222  42.2726345  39.4424367  11.3853478
  43.4773779  39.1635871  10.5125260  67.4166822  42.8457594  62.8173304
  67.8356409  42.0826530  62.4193668  66.5047312  42.5818300  62.9394436
  74.8681641  24.3201780  56.2150288  74.2603922  23.7102008  56.6330862
  74.8681641  25.0878739  56.7867613  67.3236322  76.7582417  65.0944376
  66.9198227  76.6426468  65.9545565  67.8598166  75.9744692  64.9742842
  59.3924093  56.0538816  48.1738663  59.3103266  56.9765186  47.9325533
  58.8157701  55.9521437  48.9310741  69.6222925  55.1163197  57.2846842
  69.2169285  55.3908730  58.1071997  69.5757437  55.8910227  56.7244148
  52.1973515  69.2385483  41.4972639  51.4737892  68.8831520  42.0133829
  52.5805092  68.4754324  41.0647392  55.2708101  68.5971832  51.5437841
  55.6405449  67.7802372  51.8786383  55.3398752  68.5190630  50.5922794
  41.6241217  16.9512367   3.3904842  41.0997438  16.2517488   3.0006456
  41.7962027  17.5534177   2.6666078  34.2722273   7.2928464   6.1799908
  34.6495748   7.1061981   5.3203374  34.7589588   8.0545002   6.4949620
  55.6158257   7.9649872   9.7042489  55.0121355   7.6878393  10.3934336
  55.2257347   8.7647605   9.3515122  43.3496904  21.3523269   9.5305246
  44.0659189  21.7799592   9.0610814  42.5879478  21.4686632   8.9626795
  29.6592402  53.5506487  33.6415195  29.0227199  54.1821527  33.9766002
  29.4769192  52.7461720  34.1271210  64.1653061  41.7211962  55.9084749
  64.9943686  41.9149637  55.4710531  63.8562012  42.5707388  56.2230635
  64.5908928  65.4152536  60.6906796  63.8647413  65.5827475  60.0899410
  64.8054600  66.2750006  61.0526562  15.7545364  21.7158294   1.4115380
  16.3526821  22.4580312   1.3244149  16.2820053  21.0298848   1.8207917
  35.3240728   4.7705799   4.8177686  35.3795934   4.9162152   3.8733432
  35.9647083   5.3756851   5.1914918  28.9395332  25.7187080  15.9270918
  27.9931593  25.8559942  15.8851516  29.0768719  24.8681235  15.5101049
  35.9715080  36.0344434   9.8861873  36.4529824  36.4873648   9.1938883
  36.5455198  36.0862231  10.6504273  67.9419661  59.4891453  50.4070377
  67.3505545  60.0568485  49.9128914  68.7282944  59.4319868  49.8642254
  79.5773411  58.5716152  65.6554699  78.8723755  59.0867281  65.2631474
  80.1635170  58.3726931  64.9253559  41.3499928   5.4169112  11.8782842
  41.0846615   6.0837793  11.2449455  40.7041264   4.7180426  11.7749834
  76.2261868  28.1852198  42.7418852  75.8426237  29.0500331  42.8875256
  76.3088942  27.8092170  43.6182499  31.3642263  73.2347727   7.9918396
  31.5189576  73.5324860   8.8883090  32.0710206  72.6123428   7.8208137
  59.1306973  52.1418715  61.9286585  59.3477583  52.9986143  61.5610886
  58.2492542  51.9582033  61.6037655   0.9774711  49.5059633  45.1114225
   1.8075722  49.9724150  45.0135040   0.3251346  50.1980639  45.2195263
  77.4563694  25.6748915  55.6061602  76.9161415  24.8848391  55.6204176
  78.0577564  25.5671525  56.3430166  40.6980610  23.1225896   4.0617338
  41.4627981  23.4644079   4.5249477  40.7306051  22.1775675   4.2104232
  75.1862383  32.9551530  61.1949301  75.8900738  33.2154274  61.7891598
  75.6198835  32.8282285  60.3510857  47.9731178  10.7903719  19.7339582
  47.1515369  11.1850119  20.0263476  48.1617069  10.1174390  20.3880429
  62.5898457   6.8722934  12.2623086  62.5375795   7.6260591  11.6746545
  62.6130867   6.1143476  11.6781771  43.0820084  25.8127141   7.6068044
  42.2290564  26.2122726   7.4363363  43.6901855  26.3001633   7.0511532
  52.5246143   8.2573754   8.6117452  52.4210787   7.4069709   9.0387398
  51.6803265   8.6913735   8.7344652  81.1584854  52.5091553  60.7732344
  81.8531895  52.8835964  60.2315569  80.9111118  51.7023325  60.3214931
  70.0440025  11.7488158   2.9434294  70.5634975  11.9478691   3.7223610
  70.4517317  12.2621930   2.2459823  67.5929976  48.4753656  62.0872116
  66.6627407  48.6942577  62.1414518  67.7353716  48.2615662  61.1651182
   2.2357567  70.6516504  55.7896709   2.9102156  70.4375219  55.1450872
   2.6778930  71.2220192  56.4184999  79.3038273  52.0773125  52.4924755
  79.5218658  51.1489582  52.5752068  79.5059919  52.4482918  53.3513927
  14.6918559   5.9274375  46.4004612  13.8949311   5.7053328  46.8819284
  15.3796685   5.4163313  46.8269777  65.8537674  48.1018257  54.2741585
  66.5062761  47.4037027  54.3297291  65.3039694  47.8570938  53.5298061
  58.9858437  69.8313093  41.3779640  59.6462154  69.9349928  40.6928396
  58.8904715  70.7067394  41.7531443  50.2211523  19.8563492   5.4716581
  49.4114399  20.2076387   5.1012695  49.9411821  19.0964782   5.9819949
  75.5275011  67.0016384  39.6682358  75.2921724  67.8570271  40.0276279
  75.0293446  66.9389677  38.8532877  18.4948289  20.8008099  51.4761019
  19.1362321  21.4677763  51.2311792  17.6721036  21.1086202  51.0958290
   8.4944403  61.6658115  63.1277227   8.7429714  62.5199080  63.4812546
   7.5588030  61.5918303  63.3157158  58.7697411  20.6035209  14.1106832
  58.9822960  19.8575854  13.5497618  58.9631605  21.3708973  13.5722113
  69.0044785  64.7404861  53.5452509  68.7619209  65.1814365  52.7310228
  68.8889694  63.8091469  53.3568573  64.1481352  64.8737240  44.0672255
  64.6529579  65.2818727  43.3638048  63.9693594  65.5877399  44.6791458
  68.3844233  72.1451807  41.3675022  68.7674046  72.1214199  42.2444248
  68.5557604  73.0336714  41.0553074   0.8151522  46.9945621  43.8961935
   0.8671820  47.7057457  44.5347404   1.2753125  47.3295307  43.1265926
  48.3551931  37.8284717  12.7996087  48.8209057  38.6611557  12.8769290
  47.4423599  38.0771756  12.6543105  32.7396846  53.0534506  25.0060987
  32.5096869  52.2136259  24.6085644  32.5734448  52.9296207  25.9405851
  52.1298885  68.9266157  52.3840570  52.2058964  68.1893492  51.7783403
  52.0716000  69.6964550  51.8182135  68.0270052  60.4964542  58.6446905
  67.3096418  61.1175203  58.5185909  68.1982994  60.1475620  57.7699518
  49.6160984  49.3705702  63.5348225  49.4935083  48.7784767  62.7927828
  49.5745182  48.8023901  64.3040228  36.2156177  21.9892526  23.4381938
  36.9203568  21.9435287  22.7920628  36.5388894  22.5978303  24.1025424
  38.2898092  13.4753883  13.9214897  38.2654190  14.4322479  13.9140022
  37.5051689  13.2195854  14.4063985  53.3651543  10.1732254  28.0841136
  54.1779041  10.6140113  27.8363824  52.8689194  10.8371568  28.5628414
  34.8287225   2.9440916  18.5414922  34.4428015   3.7274849  18.1495845
  35.7674789   3.0310860  18.3759582  77.5765991  60.0636578  65.0461817
  76.8565559  60.0395393  64.4159555  77.4835396  60.9098101  65.4838991
  66.8055916  54.7441769  55.9882832  67.4442005  54.6338415  55.2838421
  67.0962334  54.1403723  56.6717911  71.1500168  32.1626782  66.0968208
  70.9462309  33.0886269  66.2284184  70.6885338  31.9279337  65.2917385
  60.3898001  67.0000172  45.9981775  60.9217310  66.7254877  46.7451096
  60.1684952  66.1842346  45.5490065   2.5634089  61.1334753  37.8624225
   3.3715993  61.6408300  37.7872276   2.1156804  61.5073013  38.6213875
  23.0257177  14.2194963   2.0862652  23.9061546  14.5946884   2.1034043
  22.8459644  13.9886272   2.9976490  20.0639272  26.5890574  28.3427525
  19.4661987  26.0027027  28.8065863  20.1672888  26.1909604  27.4784231
  58.9023113  54.0100622  43.0506611  58.7382078  53.0990839  42.8068972
  58.0584097  54.4457150  42.9311895  38.8472271  13.9115632   2.5047076
  38.8709855  14.8654127   2.4283099  38.8013601  13.5999560   1.6008110
  42.7264261  15.4105723   8.1253707  43.1716347  14.8667610   7.4755341
  41.7995358  15.1939690   8.0244094  13.8428605  11.1387360  23.9029956
  13.4246099  11.9727695  23.6892509  13.9586949  10.7052541  23.0574727
  62.3501778  42.2524405  46.2613678  62.7191591  43.1101465  46.0505915
  62.9952145  41.6266775  45.9318542  66.5703535  57.3240280  44.8433399
  65.6445312  57.5290823  44.7127914  66.8905592  58.0183411  45.4192114
  46.0833549  29.7373271  16.8468845  46.7579556  30.1475048  16.3056815
  46.0636806  28.8258719  16.5551758  -0.1024355  65.7921553  56.6447878
   0.4815901  66.5503073  56.6261864   0.1554447  65.2724314  55.8834600
  39.5784712  20.1772499   0.5356118  40.0585079  19.3513799   0.5967172
  40.0509548  20.7725358   1.1175276  51.8296623  32.6936769  64.1457081
  52.2976065  32.1899271  64.8116636  52.5061178  32.9466629  63.5174990
  71.1407137  40.9019184  64.7920084  70.6104136  40.2471161  64.3378639
  71.7314291  41.2403250  64.1191244  73.7256098   3.6441222   9.1418654
  73.0890179   4.3458992   9.2778486  74.5734644   4.0882990   9.1327727
  61.4931822  67.6697874  62.4707985  60.7204771  67.2350407  62.1100378
  61.8787146  68.1303644  61.7255020  66.8420029  59.6473742  55.9561396
  66.4496613  60.5170250  56.0336208  66.1249113  59.0431213  56.1481953
  11.9055033  52.4163771  10.5239701  11.1069036  52.9405975  10.5844975
  11.8880665  52.0547867   9.6378654  39.3607736  38.9442992  17.4391437
  39.8495293  39.6270967  17.8986382  39.3446302  38.2083464  18.0509818
  20.4490900  32.2047043   7.6678002  20.4282737  32.0882845   6.7179346
  19.6486187  31.7817259   7.9785472  56.4165354  37.0735884  65.5866432
  56.8909264  37.8170180  65.2144909  55.8852482  37.4542928  66.2859488
  15.8721316  26.5682793   3.3202496  16.1971045  26.2651610   2.4724624
  16.1067581  25.8692050   3.9305574  32.1458697  37.0338082   8.6582726
  32.5927758  37.7906561   8.2792091  32.0340848  36.4293957   7.9245019
  41.1007977  21.9530511  22.4014401  40.7209349  22.5108933  21.7226553
  41.9800615  22.3061347  22.5373125  19.1841698  72.1602011   4.3326932
  20.0266361  72.4844551   4.6510392  19.2216289  72.2866344   3.3846200
  12.4309683  55.4527807  10.9937882  12.6156354  56.3119030  11.3733101
  11.9589400  55.6452799  10.1836252  73.7726402  61.5557671  21.6302371
  72.9487181  61.1335230  21.8733263  74.0946245  61.9399166  22.4457049
  33.2297325  16.5576255   5.7355976  32.6786089  17.1992743   5.2875108
  33.8231564  17.0840883   6.2712419  26.1477089  18.1571579   4.2281741
  25.5691767  18.9189112   4.1926095  26.8660331  18.3739936   3.6338463
  30.9744477  63.7353373  20.5268550  31.1816931  64.2650414  19.7569871
  31.6654253  63.9452839  21.1551094   0.6788036  40.8664370  50.9445381
  -0.1787022  40.5738068  50.6358671   0.9280559  40.2213860  51.6063690
  44.8709965  37.6293921   7.7470696  45.4341602  37.5698471   6.9753629
  43.9915276  37.4464464   7.4164641  65.6103563  24.4060397  52.2137356
  66.0202360  25.2698588  52.1684837  64.7582531  24.5662045  52.6193190
  15.6857252  74.5830011   2.9227874  16.4418781  74.5903921   2.3359233
  14.9636197  74.9114990   2.3871720  31.1617780   4.8709938  10.2048934
  30.2148676   4.8609155  10.0652742  31.5043855   5.4008335   9.4850874
  25.9293342  28.8750029  13.7952411  26.5764976  28.7240696  14.4841766
  25.0845647  28.7758040  14.2342806   2.8562653  17.4896407  10.8867192
   2.3999760  17.2844362  11.7027593   2.6552165  18.4114373  10.7251573
  69.9646807  57.2673988  63.0904627  70.2853441  57.8832626  63.7493372
  70.4289770  56.4518213  63.2788801  76.3149023  27.7190065  54.0102673
  75.4907942  27.2341251  53.9659119  76.8662453  27.2011042  54.5968151
  64.5554876  34.4475365   4.4129431  63.6216259  34.3456173   4.5966515
  64.5887041  35.0428700   3.6641404  41.5117693  74.0226936  65.4490471
  42.1051216  73.2716370  65.4579210  41.4026022  74.2307425  64.5211315
  48.8671970  12.1736825   3.2907909  48.3112717  12.7340567   3.8322306
  48.3998632  12.1053672   2.4582267  67.0610809  44.5586586  50.2026606
  66.9328737  45.5072165  50.1973629  67.9141617  44.4345903  50.6187105
  64.9320412  52.9734421  51.9129324  64.6324110  52.3687315  51.2341261
  64.7259712  53.8421345  51.5677595  55.6808660  71.4437540  66.7801355
  55.3921649  72.2433217  67.2201080  55.6683109  71.6649039  65.8489177
  56.7751026  47.2391939  56.3318777  56.9981480  46.5022278  56.9005251
  56.4720392  46.8322754  55.5202103  55.0859499  73.3978081  64.4699240
  54.6030617  74.1368246  64.8399210  54.5410013  73.0951977  63.7435007
  60.4322052  52.3371220  64.4934225  59.9126291  52.8439283  65.1174593
  59.9645042  52.4275684  63.6631775  37.3647380  15.0465810   7.6977509
  36.5561056  15.4449511   8.0196929  37.1810842  14.8386538   6.7816341
  33.5452485   9.0687823  13.1103647  34.3631268   9.5580572  13.1993496
  33.8154888   8.2052845  12.7979970  70.1910210  33.8614869  59.0560055
  69.9389029  33.4761596  58.2168436  70.9758854  34.3726468  58.8586903
  52.5860977  70.3661585  47.0007277  53.4985638  70.5256319  46.7594767
  52.5772238  69.4642782  47.3212957  60.5315113  34.5585132  65.7371044
  59.9609804  34.5244527  66.5049410  60.1164341  35.1981473  65.1584816
  79.5249319  62.7445936  52.6761866  79.0015221  62.3913574  51.9568157
  80.0794888  63.4080219  52.2656298  65.5111933  30.9883022  18.8388884
  65.9974957  31.8097472  18.7683725  65.1415157  31.0038447  19.7216845
  74.4381142  51.3700485  64.5819187  73.6314964  51.8553209  64.4083929
  75.1346111  52.0185423  64.4790697  44.1228294  43.7638378  12.0461643
  44.0733194  44.7131824  12.1580887  43.5959673  43.4103632  12.7628970
  22.2359157  62.0875216  65.2151871  21.9520068  61.2008333  64.9928904
  21.4677405  62.6337910  65.0486708  68.5997629  73.1732988  46.5618706
  68.3711958  72.9577398  47.4660397  69.0418768  72.3904228  46.2334299
  63.0809784  56.1450815  65.9321213  63.7818384  55.6969023  66.4055729
  63.5247469  56.8457460  65.4542351  64.0077829   5.9449035  20.1660299
  63.6323977   5.4773724  20.9121752  64.7087908   6.4758176  20.5441165
  62.9081345  64.1637039  54.0352678  63.7016058  64.6989441  54.0229893
  62.8888369  63.7442446  53.1750870  48.2848835  58.0468416  66.9191122
  47.7832794  58.8376093  67.1173954  47.8860950  57.7045631  66.1190844
  20.5032277  28.9389300  12.8387690  20.1960444  29.5097494  13.5430682
  19.7535896  28.8621426  12.2485316  69.3306780  31.2566614  63.8401508
  68.7443161  31.1844492  63.0870247  68.7871647  31.6346455  64.5314884
  69.4107962  61.6714621  65.8723021  68.9966488  61.4503622  65.0381422
  69.4066811  62.6283693  65.8955479  66.4465237  36.0105634  54.1729307
  66.8627930  36.4697838  54.9023628  65.8604383  35.3793716  54.5904636
  43.6699533  74.5168734  56.0447693  44.5605946  74.7282028  56.3246393
  43.2890797  74.0512037  56.7892933  48.8505173   8.2790071   3.7200049
  49.6145010   8.7986696   3.9700192  48.1041336   8.7694114   4.0644643
  64.1974449  36.5934467  60.2088928  64.7023249  37.3305631  60.5523825
  63.3193779  36.7156410  60.5698633  43.5080957  27.9705095  13.6232984
  43.1015110  28.8094807  13.8402057  42.8088522  27.4657631  13.2079387
  39.9116802  15.0427878   8.0536515  39.7890687  14.8080719   7.1338105
  39.0399361  15.3006911   8.3532810  22.1898890  47.3695278  21.6881990
  22.5455642  46.6167593  21.2158990  21.3428259  47.0679092  22.0164418
  63.1461191  62.0383358  59.4169807  63.0079651  61.3883734  58.7280035
  63.7700224  61.6254950  60.0140953   0.3354251  62.6110935  57.4023151
   0.3718729  63.3615494  57.9953766   0.2746568  62.9985809  56.5291643
  66.7199373  58.1241083  52.2668028  67.3008347  58.6065674  51.6785622
  66.5260744  58.7418842  52.9717827  69.9094391  63.8488722  37.4232554
  70.3576946  63.1706285  36.9179964  69.1220331  63.4183979  37.7562928
  59.5550632  62.7097464  42.4104261  59.8830462  62.5035954  41.5351200
  58.6109209  62.5629520  42.3531437  77.6638794  70.0500488  10.6746888
  77.5694609  70.5044174  11.5118670  78.3941555  69.4463968  10.8108282
  55.6131363   8.4338409  17.3971617  55.1241064   8.3706057  16.5767455
  55.1388407   9.0892035  17.9088056  45.6721926  11.4245844   7.6507360
  45.7473850  12.1433127   8.2784355  44.8035192  11.0560822   7.8115004
  68.0101442   9.6407211  49.4454622  67.6093721  10.4835057  49.2325640
  67.2688627   9.0513611  49.5846987  67.6864624  32.7687812  39.2034793
  68.3415461  33.1350970  39.7975397  66.9136953  33.3192229  39.3302894
  77.0229673  24.8431182  58.8942814  76.7700338  23.9199805  58.9027262
  76.3095713  25.2827024  58.4316111  66.5618134  71.2676668   7.9032564
  66.9882870  70.6191111   8.4633726  66.0030365  70.7517481   7.3220235
  77.9356432  68.2345486  43.1743145  77.5222158  68.9389706  42.6752138
  77.2410965  67.5870657  43.2951403  53.0969954  27.0588589   3.7725767
  52.2898149  26.5820670   3.9658794  53.0559540  27.2275424   2.8312516
  59.3592310  18.5709774  12.0907664  59.2916298  17.6402342  12.3037899
  58.9927149  18.6421931  11.2093878  64.7006369  10.3541732  30.2666926
  63.9686298   9.7389746  30.3106689  64.3116951  11.2043107  30.4721785
  31.5992785  47.6192570   3.7023297  31.4447975  47.5761366   4.6459970
  32.5504994  47.5615406   3.6124635  33.7151241   7.3634923  60.4466009
  33.9095330   7.9799491  61.1525869  32.7629876   7.3975188  60.3543425
  42.8065586   4.5904815  36.2790537  42.4912834   3.6932543  36.1703491
  42.0672607   5.1378512  36.0143661  33.6632371  11.4698946  59.4174623
  32.8928351  10.9167600  59.5468950  33.6854005  11.6328478  58.4744978
  27.5394464   0.2326230  65.4682922  27.2276115   0.5300371  64.6135807
  27.3702192   0.9699059  66.0548162  72.8199005  29.3523264  44.6738005
  72.6032257  29.1248512  43.7696218  72.3331022  28.7204742  45.2029705
  15.5313611  13.7120068  62.6629925  14.6508837  13.9202416  62.3505354
  16.0348356  13.5444713  61.8663263  72.4958467  65.9443426  43.3208609
  72.1530819  65.0645161  43.4778595  71.9790506  66.2751627  42.5862122
  35.3675437  14.0793157   0.8557516  35.6520057  13.6578703   1.6667368
  34.4388676  13.8587105   0.7841596  46.1646366  34.6067786   6.9850332
  47.0560551  34.4505811   7.2968113  46.2075090  34.4398212   6.0434818
  14.0972602   6.6869491  63.4634256  13.8217378   5.8001608  63.2312059
  14.9717987   6.5760875  63.8364172  36.5424633  32.7144814   4.2773068
  36.5434980  31.7608023   4.1952863  37.4323821  32.9761600   4.0410855
  38.8132954  27.4921441  17.5931704  38.1451511  28.0284762  18.0199766
  39.6210504  27.9973221  17.6856995  31.8280125  50.6133747  15.3260815
  31.4527106  50.0528002  16.0051537  31.7269468  51.5022993  15.6664228
  13.3506835  66.2391090  53.6445904  14.2168689  66.1159992  53.2562637
  12.7445972  65.8785582  52.9973698   8.7632376  55.0570774  48.8379955
   8.0776149  55.0053644  48.1720543   9.4735891  55.5382061  48.4135532
  15.8192742  17.4012959  49.6252823  16.4755988  16.7169225  49.4945002
  15.0388420  16.9316185  49.9194956  17.9362571  43.6046648  38.9831924
  17.4555683  43.5459661  38.1575274  18.5678315  44.3101406  38.8430119
  74.6771240   4.6418583  61.8908882  74.1013193   4.5246494  61.1352825
  75.5009937   4.9553981  61.5178394   3.2258400  65.3294468  41.9061184
   2.2945201  65.4779243  41.7423201   3.5376462  66.1536026  42.2799873
  15.3799570  25.2996063  56.1032104  14.8276532  25.0885248  55.3504562
  15.0431192  24.7483182  56.8095016  75.0593805  76.6066170  48.1802750
  74.1070461  76.5143442  48.1525421  75.3230524  76.1328220  48.9690924
  76.0215187  43.5078526  58.8453054  75.2352381  43.3316708  58.3286285
  75.8476210  43.0989170  59.6931076  38.9484525  75.0025797  42.4155331
  39.8764253  75.2080774  42.3020887  38.6715150  74.6668816  41.5629816
  62.1525717  46.5939951   7.6541674  61.3776350  46.3846111   7.1327579
  62.7629280  46.9856787   7.0294428   1.7755570  63.7525702  60.0913811
   1.6824500  64.6559811  59.7890425   0.8766523  63.4356833  60.1796007
  25.2929616  70.0072527  30.4744840  25.9434342  70.5543947  30.9146595
  25.2355528  70.3682041  29.5898104   3.2510647  57.1640682  39.0742707
   2.9203874  57.4125528  39.9374843   2.6801634  56.4478636  38.7961483
  13.6590254  60.0323772  42.8067303  14.5794523  60.1447105  42.5691843
  13.6783683  59.7916698  43.7329674  36.0468864  26.4813948  20.4687333
  35.9660363  25.6920695  19.9333251  36.9394135  26.4469814  20.8128858
   9.0654117  49.9768877  58.8021040   9.0425962  49.6851873  57.8907156
   9.0566820  49.1674423  59.3129444  34.3857074   9.7636700  61.7577791
  33.9235353   9.9158114  62.5820875  34.1210461  10.4926407  61.1967182
  63.8635063  55.9745121  29.9218845  63.8339663  55.7304907  30.8469868
  63.4370613  56.8307304  29.8862958  65.3480387  32.8131008  12.1634126
  66.0870600  33.4197187  12.2091293  64.5743752  33.3765125  12.1790767
  27.8078866   6.6602093  59.9150610  27.0728350   7.2180295  60.1695538
  27.5581312   6.3102919  59.0598345  51.9724178  15.0403440  60.2633476
  51.3409758  15.7592452  60.2369165  52.0729637  14.7761345  59.3488407
  67.3754644  75.6566906  42.4783564  66.8203259  76.3404751  42.1035242
  68.2359362  75.8049917  42.0861483  63.6232615  10.1728296  54.1207838
  63.7932777   9.9103576  55.0254583  62.8879213  10.7825053  54.1824436
  28.7649870  10.0073481  60.4029942  28.3248758  10.3311384  61.1889267
  28.0711293   9.9508011  59.7460365  77.2962523  65.7021284  59.5891333
  78.1089592  65.8416319  59.1030502  77.3154163  66.3620472  60.2822208
  29.9624252  23.6887646  56.1833334  29.6655202  23.9819002  55.3218508
  29.2311335  23.1754994  56.5268469  77.5969791  76.2053204  58.8480759
  77.6555109  76.8157959  58.1131411  77.8551865  75.3607178  58.4790134
  12.0754647  75.6696081  63.1752443  12.7383196  75.9101105  62.5279284
  12.4317873  75.9773731  64.0086365  12.7726126  76.1737204  31.0336208
  13.4484839  76.8453932  30.9425879  12.5572729  75.9271669  30.1341367
  36.8732595  37.4734187   7.5806707  36.5662313  37.1189594   6.7462099
  37.6184034  38.0266309   7.3462570   1.0010818  68.0844212  66.2463140
   1.8024445  68.6051655  66.1927176   1.2581816  67.2980738  66.7277622
  19.0369070   4.8864928  38.7568569  19.2978072   5.5949980  39.3452311
  19.2421961   5.2143973  37.8813195   1.2870981  54.1172552  28.6597919
   1.0198371  55.0302839  28.7655449   0.9077246  53.6676455  29.4148803
  16.0925782  63.5088825  56.4419985  16.1899352  63.4625149  57.3931074
  15.1526809  63.6248732  56.3028193  37.2168899  14.5260084  50.3648090
  36.5916729  15.2323806  50.2024031  37.0494962  13.8927984  49.6667719
  56.8284512  49.0972757   3.3944955  56.7590427  49.0257072   4.3464893
  57.2534990  48.2835627   3.1234905  40.6370592   9.6369869  30.3749228
  40.8282757   8.7194645  30.5694008  40.9433842  10.1141524  31.1460996
  70.3890991  47.9195642   6.5688771  70.2817059  47.7209473   5.6386900
  70.1449442  48.8418341   6.6466051  42.8800249   5.6397766  45.8014059
  43.3038425   6.1039764  45.0795126  43.3574772   4.8127949  45.8675241
  36.8662691  11.7448604  64.1630507  36.5392113  11.7533743  65.0626040
  36.1181116  12.0207942  63.6335659  72.3594713  54.6124983  20.5926418
  71.4434671  54.8775673  20.6757283  72.8191757  55.4142857  20.3435588
  36.3257027  14.8850906  40.5617380  36.3124180  15.2959490  41.4261723
  35.4368830  14.5506477  40.4418230  32.2596288  22.6457000  43.5695410
  33.1283569  22.3236418  43.3290815  32.1744704  22.4338150  44.4991016
   7.9191560  74.9202919  53.7510252   8.3901000  74.0988159  53.8911200
   7.7007306  75.2243900  54.6319628  49.8663330   5.9458315   5.2356517
  49.4535685   6.6259015   4.7033337  50.1756620   5.2996027   4.6008804
  35.7308269  56.7214394  33.5386252  35.2846718  56.6141176  34.3786621
  36.6596246  56.7691565  33.7651014   5.9684724  21.9529629   0.3492424
   5.5817670  22.4752498   1.0520282   6.8522274  22.3061275   0.2468492
  15.8757532  68.8930988  32.8907633  15.8068216  68.4643793  32.0377231
  16.7978323  68.8017941  33.1308985  48.9303446  39.1191363  10.4100311
  48.1277943  39.6398664  10.3786218  48.6667919  38.2976937  10.8247650
  72.0818710  64.5700121  11.6256714  71.7864799  63.6605167  11.6679299
  72.2275114  64.7314739  10.6934953  43.3277941   8.0956465  55.7246923
  43.9118719   7.4338681  56.0950089  43.7435722   8.3476496  54.9001598
  46.5002680  21.4072490  58.4676266  46.6950464  20.4717827  58.4111023
  45.7881546  21.5418386  57.8423166  14.6007252  73.1926155  39.3297791
  14.6599460  73.1657457  40.2847672  15.3256047  72.6444197  39.0293360
  13.6622834  67.7308226  64.0243435  14.1395879  67.7786064  64.8526764
  13.0556178  68.4706068  64.0544701  71.6764593  74.0676260   2.5594434
  72.1762514  73.2571745   2.4614462  72.3415184  74.7535467   2.6181117
  58.7376738  37.7796841   3.0088526  59.6365595  37.5584817   2.7653196
  58.5206747  37.1637845   3.7087181  47.5949049  54.7538710  65.5251455
  48.3982182  55.0446224  65.0934267  47.8189325  54.7276735  66.4553928
  36.5358472   4.0348241  47.1021891  36.4368701   3.1235862  47.3780155
  35.6595445   4.4090921  47.1930170  58.4028912  33.4008956  48.9772320
  59.0596676  32.7259326  48.8060474  57.9895878  33.1304383  49.7971487
  22.6689839  70.0586891  62.5605249  21.8552208  69.9104309  63.0422306
  22.3956633  70.5095434  61.7616177  48.8609028  44.8534822   6.4806771
  48.8634968  44.5969677   5.5584919  49.1340208  45.7708693   6.4748710
  65.8700323  60.4949331  60.9182596  66.5782261  60.2888155  60.3081703
  66.2346172  61.1716938  61.4886141  69.3239832  38.7813377   2.0388642
  69.8520231  37.9844141   1.9906828  69.8389530  39.3773556   2.5827408
  36.5118289  66.3585901  56.7416906  36.1918926  66.5283060  55.8556461
  37.4292970  66.6307449  56.7212820  16.2609887   1.1551013  50.0751829
  15.3704774   1.0758919  49.7332096  16.2132573   1.8761994  50.7028580
  47.6297379  59.3775558   2.0101285  47.7090740  58.4532690   2.2459996
  48.5291672  59.6608877   1.8458831   4.1075987  28.1405473  26.6243982
   3.1716102  27.9699111  26.7294741   4.5164090  27.2769332  26.6816664
  10.4187286  68.2585716  65.4149723  10.5885172  69.1817617  65.6024027
  11.1065710  67.7881193  65.8859062  48.5195255   2.8928730  66.0921144
  47.9654741   2.2004449  66.4523888  49.3181753   2.8588822  66.6186476
  79.4749641  72.3437691  60.9330893  78.7964010  72.9721403  61.1799431
  80.1360989  72.4227095  61.6207647  16.0382640  66.5111494  52.3997784
  16.0371530  67.2927046  51.8471479  16.6073060  66.7385626  53.1351042
  46.9490099  15.8084273  45.9716845  46.2501717  15.2515519  46.3148308
  47.7422905  15.4900563  46.4024687   0.5176752  67.8096199  42.6198530
   1.3236314  68.1866503  42.9727173   0.0504980  67.4812365  43.3880568
  36.9123626   3.8982850  56.2785053  37.7668095   3.8500994  55.8497524
  36.3345456   3.3780628  55.7201815  27.6324701   8.1670052  53.0475950
  28.4441018   8.0298680  52.5590467  27.3138094   9.0185827  52.7484274
  73.9943171  19.5527220   1.5979078  73.9176989  19.1735232   0.7223678
  74.6371078  19.0003145   2.0427586  40.9943295   2.9028404  55.9544563
  41.7990923   2.7605948  56.4528084  40.4496908   2.1421485  56.1568069
  68.2757664  18.6136758  12.7098262  68.2114029  19.5367622  12.9547739
  69.0833044  18.3113444  13.1254101  40.1778221  23.6585736  50.4299068
  39.4921923  23.7181926  49.7646284  39.9998808  22.8349948  50.8840942
  81.9361923  21.1505342  42.7404213  81.9640684  21.9995236  43.1816339
  81.5338627  21.3348031  41.8916512  38.2722211  10.4325593  29.3296194
  39.2008877  10.2964830  29.5174837  38.2341290  10.5463278  28.3799672
  28.4277749  74.7169352  63.5210371  28.3961105  73.8526535  63.9312077
  29.1548896  75.1620865  63.9562130   7.7666974  69.3438053  51.3649130
   7.2248954  70.1305771  51.3042879   7.1690667  68.6249971  51.1590481
  36.8322849   6.6203713  56.2559128  37.1447706   5.7417506  56.4718103
  37.2522020   7.1891981  56.9011593  24.3119979  74.7054815  65.8969975
  24.4299698  74.0644646  66.5980053  24.5616055  75.5409336  66.2918997
  32.7831554   2.6210064  51.3432789  33.2433653   3.3049434  51.8297672
  31.8568611   2.7800119  51.5247393  37.1955824   5.5631256  53.9345264
  36.9710684   5.7838404  54.8384666  37.7748203   4.8048171  54.0099239
  45.9413910   1.6508216  28.4091139  46.6376209   1.6727099  29.0656352
  46.4016771   1.6864446  27.5706005  17.3873985  72.9906034  63.6066437
  17.9588389  73.3273888  62.9165220  17.9455101  72.4003363  64.1129255
  14.5189881  59.6353149   0.7490321  13.6850405  59.2210913   0.9708013
  15.1710391  59.1430283   1.2477472  63.1572676  16.5726507  12.9506898
  64.0864277  16.7998385  12.9864621  62.7245092  17.3780572  12.6673675
   3.7345773  50.8106613   4.3332022   2.8407702  50.6065035   4.0581366
   4.0647733  49.9913263   4.7018430  52.0820761  10.5700946  55.4086161
  51.2152815  10.3959429  55.0417805  51.9689560  10.4607368  56.3527966
  35.6672287  16.4960456  61.0776854  36.1825252  15.9294975  61.6519022
  34.8511934  16.0159111  60.9370089  72.5288057  47.8470039   2.9868063
  72.8601789  47.4508047   2.1809220  73.0228472  48.6622381   3.0736417
  23.0026174  74.4286585  63.4202051  23.4038186  74.3240643  64.2829514
  23.5325575  73.8804102  62.8415680  62.0969629   6.6805506  39.1496968
  61.2461281   6.8781191  38.7581968  62.4477100   5.9690624  38.6139774
  69.6298552   6.8323630  27.9800701  69.5194817   6.2536049  28.7344480
  70.3302860   6.4277929  27.4682593  35.0538135  10.6265748  15.7504582
  35.5231690  11.4592516  15.8013201  34.1395187  10.8564878  15.9160924
  22.8149295  50.7410622  60.3507042  22.9623365  51.5985632  60.7496977
  22.6794267  50.1517439  61.0927105  60.2445412  18.1723738  61.2444782
  59.6806383  18.8856030  61.5437269  61.0303688  18.6097455  60.9167385
  79.0395880  11.8407333  58.0337715  79.0243340  11.0063374  57.5649595
  78.3653784  11.7495167  58.7070847  20.6226492  15.0563610  58.0104828
  19.7528911  15.3105772  58.3189058  20.5018735  14.8712373  57.0791531
  37.6474571  11.6103184  40.8527374  37.4479628  10.7131875  40.5851698
  36.8102551  11.9616091  41.1559248  56.1123800  17.1459866  64.3992996
  56.0905457  16.1908507  64.3403864  57.0081854  17.3804915  64.1568851
  15.7287252  57.3805428  49.0331650  15.9946537  56.4658737  49.1274929
  15.5221927  57.6630259  49.9241066   7.9604030  75.3256655  30.0308800
   7.3381007  74.6026230  30.1094961   8.7696171  74.9880219  30.4148054
  75.9910345  35.7700491   5.1191688  76.0043144  35.3947973   4.2386907
  75.8079386  35.0266123   5.6936347  38.2152724  20.3764224  58.8444519
  39.1064835  20.5795598  58.5603571  38.0998659  20.8805776  59.6498966
  31.5255833   6.7838526  64.6231413  32.3220968   6.3570738  64.3074560
  31.1618018   6.1700916  65.2612591  55.7948589  19.9225986  62.0151281
  55.1284790  19.5469236  61.4397669  55.4230118  20.7576871  62.2990036
  36.8579745  14.2207873  55.5163193  37.5204849  14.5671058  54.9185133
  37.3207569  14.1062641  56.3463497  56.0636616  21.0925579  43.3062792
  55.6021166  21.8803573  43.0189133  56.9863081  21.2785220  43.1320047
  26.6423893  63.3355665  40.3505993  26.7078233  64.2884970  40.4128170
  26.8659210  63.0224037  41.2270641  24.1997170  17.4884534  63.3145142
  23.4527969  17.9112160  63.7383175  23.8115478  16.7942572  62.7819252
  16.4322817  69.8116827  53.2266188  16.1688638  69.4443941  52.3828506
  16.8986118  69.0987492  53.6630774  66.9699430  27.8679585  -0.1040343
  67.8817368  28.1555414  -0.1504500  66.8389368  27.6344371   0.8149529
  77.1560812  13.1849039  54.6340227  76.3151455  13.6245275  54.5083714
  76.9365740  12.2539234  54.6704102   5.1199847  77.0621490  60.4772425
   5.8067971  76.4141035  60.6339455   5.4989171  77.6622057  59.8349237
  29.6010017   5.2004904  65.9169197  30.0732231   4.7112229  66.5906096
  29.5400214   4.5939994  65.1788950  18.9323878  53.5637522  55.0508547
  19.1552925  54.1868353  54.3592501  19.6403015  52.9198027  55.0303555
  11.5147269  45.5375576  14.1018689  11.2919664  46.3919687  13.7322867
  12.4585402  45.4559946  13.9647675  18.1571579   4.2514485  57.6970816
  17.3842311   3.9737242  58.1886959  18.4270930   5.0683618  58.1166267
   9.4990033  46.6287422  47.2530603   8.7980473  46.3540602  47.8441954
   9.4133753  47.5809479  47.2061491  51.6022348  11.6128612  43.1042862
  51.8711090  12.4828672  43.3992910  52.4073553  11.0953832  43.1194401
  33.4357595  30.5322194  62.0499992  33.8643408  31.1174679  62.6745272
  33.3693695  31.0472012  61.2458754  19.6340823  50.7486677   0.6352539
  20.1391721  49.9404287   0.5465754  18.7345612  50.4925394   0.4315609
  31.2604022  18.0312431  42.3676252  31.8067431  17.8293800  41.6080236
  30.7588077  17.2306311  42.5214291  25.5573702  71.8378115  49.4826508
  26.0365653  72.5144243  49.0043211  25.0024223  72.3234320  50.0929260
  80.5318356  64.0960932  42.1964407  80.7872677  63.9979124  41.2791872
  79.7635221  64.6664381  42.1713829  49.2866182   3.1097540  54.8068523
  48.9748049   3.2199639  53.9086008  49.9600315   3.7820166  54.9108028
  40.7531881  14.7483635  56.6170406  41.0556555  14.7840905  55.7095909
  39.9458551  14.2354262  56.5803909  54.7063541   3.2652774  49.3277264
  54.1871452   3.0498421  48.5529757  54.5918131   2.5137514  49.9093819
  66.6668129  44.6231318   3.9581868  65.8100653  45.0076962   4.1434643
  67.2933912  45.2430677   4.3314305  50.7273626  17.8415120  60.7606125
  50.0265551  17.5169718  61.3260984  50.2987003  18.4794390  60.1900625
  58.8085270  14.3541956  30.5199957  59.5570803  14.6490920  30.0014114
  58.7195206  15.0132847  31.2084079  36.6014862  64.6539450  63.4391212
  36.7910910  64.6990061  62.5019693  36.3971710  65.5559683  63.6857891
  44.8262691   5.2285659  62.4852324  44.8841476   4.4296414  63.0092525
  44.2335749   5.0024301  61.7684269  33.7680173  23.7130880  54.7338343
  34.4265866  23.8259459  54.0484285  33.0566978  23.2361317  54.3063211
  64.0629816  52.9251337  58.6123896  63.6698580  52.1156883  58.2860708
  63.7460566  52.9994011  59.5125389  37.3115182  20.4957128  61.9400549
  36.9109917  20.6634998  62.7930832  38.1490922  20.9578562  61.9736671
  46.5038300  75.7361412  50.1285982  45.7796764  75.7407856  50.7545471
  46.3883448  76.5405178  49.6227598  28.9768457  64.5553064  48.6516142
  28.7830615  65.1432037  47.9215050  28.3115196  63.8698769  48.5902929
  44.6864796  12.6116800  54.5594358  45.3721619  12.2419775  55.1156616
  44.2893696  11.8526661  54.1323090  43.9923334  69.6731615  49.1675043
  43.3781147  69.7239447  49.8998880  44.0844727  68.7358379  48.9967346
  41.6593313   0.5249436  38.2736826  41.1170626   0.4180274  39.0551853
  42.1789646  -0.2778002  38.2310653  20.2267766  47.9559803   0.5078522
  20.4149461  47.5073528   1.3322046  19.3821573  47.6017141   0.2297400
  67.0545673  22.6277995   4.1354045  67.4874353  22.8757191   3.3184639
  66.3434505  22.0477486   3.8632122  27.9013944   3.2934165  46.5009642
  27.4009418   3.7333751  45.8137846  28.5567355   3.9373186  46.7695761
  49.4490814  12.0283389  50.8262539  48.7147617  12.4987972  51.2208128
  50.2272940  12.4579585  51.1812782  62.9331017  12.4946141  46.6388893
  63.1514645  12.6970172  45.7291698  62.0200348  12.7663386  46.7321920
  13.2783496  64.8221254  30.9112930  13.9733148  64.2637539  31.2598276
  13.7271094  65.6240654  30.6434464  63.8292027  -0.0527519  58.5282850
  64.1754532   0.5309446  57.8532743  64.3384933   0.1575229  59.3109989
  74.8919725   1.5070421  55.7258129  74.1000032   1.8036036  55.2774096
  75.4365921   1.1375038  55.0307894  79.6345949  22.5742292   7.5742394
  80.5146980  22.9481912   7.5318003  79.4986534  22.1831679   6.7112082
  78.5535097  62.4231911   5.8359325  79.3980885  62.0331764   5.6105214
  78.0744600  62.4522877   5.0077450  48.5782433  29.2552233  10.3068948
  49.4247675  29.2782712   9.8606902  48.2467127  28.3717847  10.1461005
  22.8959250  22.2140145  53.7491989  23.6598444  21.6394281  53.6990643
  22.1576691  21.6197634  53.8836384  35.6904197  13.3193493  60.6795311
  36.3842940  12.6955891  60.4657650  34.9867296  13.1151879  60.0636005
  42.9363060  13.5727501  39.1894865  43.7592649  14.0348041  39.3490839
  42.4449825  14.1526413  38.6076236  31.6574597  21.8200541  33.6567092
  31.0342240  22.4881792  33.3713675  31.7919493  21.9997668  34.5872188
  69.3935537  33.3851147  14.1245091  69.8452139  32.7311206  13.5911012
  69.0859175  32.8991508  14.8896444  21.9902205  14.5037055  53.6903858
  21.4847898  14.2110741  52.9320049  22.4667478  15.2729523  53.3782768
  73.2494497  46.3446951  23.3387947  72.9547739  47.2391081  23.5103226
  74.1664505  46.4398623  23.0813360  51.4598942   1.2653546  41.7319250
  50.9935856   1.1552188  42.5605726  51.0909176   0.5937131  41.1583519
  36.2957478   8.1774920  34.2385554  36.9201922   8.8904917  34.3724561
  35.9934092   7.9553556  35.1191664   1.0336971  28.9313531   7.7430731
   1.6748366  29.5997763   7.9846954   1.5559193  28.2247233   7.3633492
  58.4918785  42.3966122   0.8259958  59.4261837  42.3255014   0.6304225
  58.3478165  41.7722130   1.5370539  11.9813681  22.0182323  21.4110875
  11.5658295  22.7327633  20.9283805  11.2737358  21.6369534  21.9308114
  76.3394213  61.7443419   8.2249475  76.7522144  61.8568373   7.3686886
  75.4360628  62.0330048   8.0951208  35.5729055  60.4174328  45.2930307
  35.4130363  59.4817305  45.1700020  35.7318807  60.7513666  44.4101715
  47.5436640  15.8286071  50.5812263  48.3847332  15.9598386  51.0189629
  47.0028019  15.3799963  51.2311888  48.7096643  15.4600322  48.2898331
  49.6655941  15.4173350  48.3143997  48.4669495  15.8724666  49.1188192
  44.9574089   3.2853109  37.5418115  44.2972946   3.9498210  37.3445654
  45.7116079   3.7831700  37.8573322  73.2372332  60.7770205   4.0105891
  72.5111771  61.1272097   3.4944087  73.9812946  60.7774162   3.4084195
  50.1770687  19.6772301  64.2374945  49.7688627  18.9988863  63.6994934
  49.9943161  19.4106102  65.1384640  14.2052710  40.7933140  27.4442744
  13.3868825  40.4129887  27.7633715  13.9362454  41.5871143  26.9819498
  20.0094628  76.4221859  35.0957227  19.3053043  77.0492554  35.2605844
  20.1308799  75.9730005  35.9322166  13.4944832  38.1729412   6.6993195
  13.1074524  37.4149156   6.2613261  12.7765334  38.5467243   7.2102654
  55.5227947  34.1360736  19.8735106  56.4745426  34.2203283  19.8160350
  55.2203941  34.2137074  18.9686573   1.9792944  70.7965708  27.5293875
   1.2050418  70.7693434  26.9672275   2.6564756  70.3441143  27.0264530
  33.5724568  14.2093229  57.9766369  34.0933895  13.6512661  57.3992014
  33.1239533  14.8135817  57.3850727  49.6044159  17.4058127  66.0476398
  49.2518091  16.7522562  65.4436827  49.1109896  17.2746038  66.8572998
  32.6857185  24.2811799  46.9190073  32.9455590  23.4363532  46.5516043
  31.7663860  24.3778300  46.6705799  79.3522930   8.0295730  36.1693716
  79.5751429   8.9574629  36.2441397  80.0143528   7.6711208  35.5782509
  58.6870480  14.8223484  62.7163887  58.5018969  14.8428011  61.7774916
  58.1349659  14.1170764  63.0540752  38.5356903  17.9308152  57.3023129
  38.3587837  18.5568833  58.0044317  38.5722160  17.0815146  57.7422953
  77.7949047  30.6688190   9.9414235  77.8481007  30.2847385   9.0662748
  77.9896975  31.5964603   9.8081154  13.0406511  74.5934486  59.2576456
  12.7334976  74.4044495  58.3709812  12.5846231  73.9581490  59.8096037
  38.2449651  51.3235855   4.0124434  38.9707947  50.9220791   4.4901451
  38.4260798  52.2628641   4.0467855  17.5832558  76.2503767  58.4259558
  18.2489514  76.5560532  59.0421057  16.7558563  76.3555717  58.8956118
  58.4539127   0.9772620  48.5064125  59.0989780   1.2784979  47.8665829
  58.9698458   0.7612921  49.2832041  19.8197627  17.7134442  38.8688946
  19.5258760  17.9268408  39.7545147  19.8648655  16.7574024  38.8553548
  18.0037248  74.5719767  37.1044636  17.4557233  74.0147638  36.5518022
  17.3810923  75.0980186  37.6062989  45.8331728   2.5383610  47.8111410
  45.3299665   3.3117399  48.0658913  46.7194891   2.7146518  48.1267452
  45.3633547   6.5234679  57.3899603  45.2897263   5.8296621  58.0452776
  45.8910179   6.1375195  56.6907835  17.5943041  31.5935135   2.8583512
  16.9318306  32.2580886   2.6694080  17.1393383  30.9491920   3.4006488
  41.4442635   1.8338704  48.2398891  40.8368683   2.5526321  48.0647230
  41.2618113   1.1932038  47.5525093  77.4586296  73.8725376  62.4686766
  76.7991734  73.3983946  62.9751778  76.9793844  74.6011829  62.0741701
  46.2331486  12.4514878  59.4072056  45.6385851  13.1740606  59.2056751
  46.5224504  12.1337032  58.5518980  51.1801004   5.6599772  39.4237375
  51.3473272   6.2863135  40.1279879  51.7186451   4.9004489  39.6458149
  57.5368118  32.8361654   8.2068831  58.3152246  32.8301764   7.6498628
  56.8057346  32.7315307   7.5979435  72.9305983   1.0299066  60.6087780
  73.4585571   1.4131886  59.9083614  73.4455013   1.1735133  61.4028072
  51.1805344  38.6959791   9.4108880  50.3427839  38.9018822   9.8256314
  51.7761517  38.5328150  10.1422203  59.7605467   2.7314842  45.9519958
  60.2319384   1.9052806  46.0588121  60.3189898   3.3825216  46.3768768
  57.7921295  25.9889269  56.6970301  58.5336494  25.7840300  57.2665930
  58.1098843  26.6956520  56.1350679  45.7796192  25.8233881  64.1657019
  46.2240839  25.1806664  63.6129045  45.1148462  26.2103701  63.5960054
  66.2333059  10.9381783  42.2580528  66.4682913  10.1320517  42.7175903
  65.6278992  10.6553960  41.5726757  57.9343510   5.0820869  38.2816887
  58.7447500   5.4394913  37.9187226  58.2238483   4.4832399  38.9700222
  64.2764664  11.1462057  40.0462008  64.4394255  12.0675230  40.2483130
  63.3232117  11.0776591  39.9929190   5.1093054  28.0931139  47.6709080
   5.1736981  27.5172901  46.9089937   4.6888971  27.5558329  48.3423328
  61.0341644   9.8342395  48.8115454  61.7168522   9.6939403  48.1554317
  60.3030396  10.2087164  48.3201599  66.4280176   6.2725860  46.9335413
  65.5619478   6.5493202  47.2328377  66.6738558   5.5667549  47.5315332
  73.3206224   9.8211372  55.0750589  72.6260376  10.4583681  55.2415609
  73.3015156   9.6881676  54.1273308  27.0724893  74.5817327  61.2031555
  27.0402265  73.6612129  60.9427071  27.5528240  74.5796919  62.0311117
  56.6009903   6.9182128  66.5573502  57.5504446   7.0231575  66.6186237
  56.4056683   6.1707723  67.1225166  14.4319713  57.8282404   5.1126945
  15.1286125  58.4798908   5.0334704  14.8682439  57.0529985   5.4660982
  72.7038288  16.8273866  65.9338999  71.9989586  17.1584153  65.3772926
  72.6955128  15.8806133  65.7932472  14.3092167  66.8416929   7.4376863
  14.8215711  66.3048601   6.8330908  14.6431875  66.6111517   8.3046043
  14.7850633  55.4110193  14.2089605  14.9131489  55.4503632  13.2611859
  15.4992139  55.9368038  14.5691943  19.0324759  61.4979110   0.6674900
  18.5229325  62.1383510   0.1710691  19.8402094  61.3928852   0.1647319
  36.0390162  59.7497702  60.3138971  35.8530426  58.8883829  59.9401951
  35.8610010  60.3635216  59.6012592  70.4082632  14.9061108  51.6756248
  69.7992706  15.1787734  50.9893179  71.1482811  15.5074441  51.5919256
  47.8712416  29.0958953  59.9862432  47.1740961  28.7731123  59.4152498
  47.6500607  28.7525082  60.8519220  60.2499390  33.3855224  58.4656000
  60.5823135  32.9909062  59.2718458  59.4049263  33.7608099  58.7132835
  72.1682405  65.2682447   5.7940173  72.9199028  65.7454491   6.1454636
  72.2851324  65.3029013   4.8446137  44.5009327  11.7137384  61.7180347
  44.8952532  11.6831887  60.8463621  44.8309612  12.5261331  62.1018696
  68.6377239  22.1179461  55.1138830  69.1675806  22.3696303  54.3574858
  67.8659964  21.6961575  54.7360373  74.2519760  25.5940080  53.9498329
  74.6517897  25.1954055  54.7228146  73.3472872  25.2814960  53.9600277
   1.9030036  12.3993158  39.4742894   1.4330523  12.3417342  38.6423874
   2.8279585  12.3799527  39.2286968  36.6124940  24.7229815  58.7833118
  37.1404552  24.7832084  57.9871607  36.0432363  23.9675617  58.6366272
  20.0019383  56.6637468   8.6419606  20.0435328  56.1000156   7.8694904
  19.0928602  56.9618940   8.6722189  29.0189195  26.2818193  34.8550582
  28.6178350  25.9383297  35.6534171  28.2824349  26.6095233  34.3388867
  33.8563585  64.5864677  44.3622923  33.2336402  64.4169569  43.6553860
  34.7151089  64.5337772  43.9427662  51.9153833  29.2954397  52.4864244
  52.3695755  30.0610685  52.1346378  52.6090813  28.7638879  52.8768969
  57.0734930  19.5076060  40.6883144  57.1573257  19.0455270  39.8542380
  56.4771175  18.9647722  41.2039709  68.7707615  23.9538741  49.5204973
  68.2510996  24.7325730  49.7200155  68.2092619  23.4315014  48.9477158
  79.5839214  41.1786222   3.5197467  80.4738712  41.3160801   3.8442910
  79.0979290  41.9463348   3.8208485  68.9513063  77.0706797   6.9095480
  69.7265196  76.5708256   6.6537791  68.3306885  76.9330072   6.1939299
  60.2635860  31.2846375  48.2258463  59.9825668  30.3696394  48.2320261
  60.3869867  31.4910436  47.2993469  68.4693527  22.3187280  40.2715969
  68.2294703  21.7758417  39.5206213  68.6934328  23.1680775  39.8912978
  52.6790714  52.8886175  11.1084497  51.7806244  52.8589487  11.4373100
  53.2225227  52.7434444  11.8829274   6.0435277  41.8173027   6.3772076
   5.1470006  42.1111679   6.2156099   5.9472948  40.9218168   6.7013681
  36.6150928  25.7681203  62.9113388  36.1848617  25.8187103  63.7649059
  36.0027361  26.1906242  62.3090601  70.9692574  22.5841284  35.4145169
  70.3031778  21.9567657  35.1334715  71.7890120  22.2366500  35.0630975
  24.1564465   7.4169153  20.1044655  24.0469694   7.3767889  19.1543937
  24.7782111   6.7169499  20.3036904  72.3176813  22.3781800  42.2417402
  71.3642645  22.4631166  42.2391176  72.5331163  22.0700669  41.3614655
  40.1739693   1.5100941  14.0042555  40.1084805   2.1563730  13.3012140
  39.4827557   1.7546828  14.6195829  75.8052588  19.1536915  58.5091877
  75.6034470  18.3674967  59.0165329  75.2687263  19.0740740  57.7205038
  30.6901097  17.1738553  48.3982992  30.4157925  16.8002963  47.5607824
  30.4745793  18.1038094  48.3278418  62.5270176  23.5956430  42.4249554
  61.9418955  23.0161905  42.9129124  63.0739069  24.0041280  43.0959845
  52.9711103   2.8545642  46.9147635  53.6705160   2.8112233  46.2626982
  52.4999857   3.6615753  46.7073822  34.8867226  10.9641123  44.8127222
  35.2742267  11.8330061  44.9180603  34.9069357  10.8056581  43.8689470
  81.5425587  39.6188545   8.5803199  80.6899548  39.2022300   8.4548926
  82.0870876  39.2667484   7.8762341   4.9848410  39.8096466  59.9757099
   5.3613150  40.3547716  60.6666040   4.7013146  39.0140462  60.4261208
   4.6980500  27.2114158  29.5515800   5.2763188  27.9711938  29.4839334
   4.9524298  26.6508007  28.8186193  48.9583683   7.0793724  43.9622211
  48.6965704   7.4251711  44.8155212  48.5370445   6.2213558  43.9119911
  60.7206154  22.7480173  55.4244900  60.7284403  22.6109791  54.4771814
  59.8754454  22.4008155  55.7097483  51.8973303  15.2132487  49.1960478
  52.7256918  15.6926441  49.2111349  51.9785500  14.5724428  49.9024487
  28.3880138  61.8432283   1.0152698  29.0892243  61.9440365   0.3715498
  28.2111073  60.9026575   1.0314202  42.1189022  15.1024127  54.5696306
  43.0494022  15.0669181  54.7912979  41.9759226  14.3369293  54.0130091
  57.2339916  10.7853043  33.8366175  56.6982508  11.5392482  34.0831542
  58.0766964  11.1625910  33.5841584  65.3497934   9.2353410  34.0007925
  65.5994701   8.8477457  34.8396397  65.7057619  10.1233459  34.0318441
  70.9023666  68.2977438   4.4899821  70.2207327  68.4279060   3.8306940
  71.4774466  67.6325321   4.1118154  49.5256519  14.4116724  26.7799759
  48.6761475  14.7333372  27.0818233  49.4170856  14.2982960  25.8357358
   0.6870442  68.8855314   7.0189869   0.7451653  69.0047026   7.9669595
   0.4571390  67.9630995   6.9071996  48.0372190  28.3080244  53.1127691
  47.2708273  27.9371047  53.5501432  48.7692595  28.0968189  53.6922026
  44.5216179  28.9911437  66.7211723  44.8394108  29.5297027  65.9964705
  43.9986897  29.5905280  67.2536373  68.2109642  41.3287783  29.2899776
  68.2071447  41.0842180  28.3645535  67.4315500  40.9074879  29.6522665
  39.9581838  63.9520597  61.4737082  39.0540934  63.8975763  61.7833614
  40.3479195  64.6540833  61.9947672  42.7695179  14.3095183  42.7281141
  42.9131413  15.2201891  42.9855680  42.0264292  14.3452382  42.1258020
  57.5502253   3.0456680  32.0544124  56.9549370   3.7828195  32.1903276
  58.3143091   3.2524648  32.5925970  49.8066139  22.3931360  46.4204741
  50.5683231  21.9660282  46.0285425  49.3593311  21.6942787  46.8977213
  18.4312475  59.3908787   9.7538322  19.3600440  59.1928196   9.8735917
  18.4141970  60.3125334   9.4959646  58.0648136  22.8511000  48.4358549
  57.7212238  23.7059808  48.1763268  58.9420986  23.0371165  48.7705183
  67.4615669  24.2559600  56.6371679  66.5550995  24.0010953  56.8092060
  67.9199839  23.4280562  56.4934444  55.4252052  73.6145878  45.4888678
  56.2043285  73.2957268  45.9444141  55.7635641  74.2266941  44.8353577
  48.5234165  18.0787277  55.8202124  48.7780142  17.8912532  54.9167347
  47.9726028  18.8589990  55.7568359  60.4145145  15.5437875  44.0898085
  60.4411316  16.3678610  43.6035728  61.0315371  15.6708741  44.8104763
  35.6549120  21.0658789  43.6157322  36.4552307  21.3215685  44.0743589
  35.8475566  21.2239718  42.6915407  52.7661896   8.9437193  51.7733812
  51.8528318   9.1441178  51.5688038  53.0286217   9.6262890  52.3910046
  59.5260715  13.1556809  42.9493427  59.8177195  13.8711417  43.5143995
  59.5907116  13.5094774  42.0622778  68.2086992  46.2500572   9.0583754
  68.4878349  45.4487371   8.6154360  67.3154259  46.3969135   8.7473637
  48.1348324  13.2117736  61.1563587  47.3936749  12.7632928  60.7491922
  48.0151033  13.0685103  62.0951700  13.8306022  70.2615690   1.9701789
  13.6016166  69.8301077   2.7933684  14.5648551  69.7513247   1.6284864
   6.5182990  65.3646088  15.0533664   7.2783345  65.0607300  15.5495870
   6.0164207  64.5696831  14.8732507   7.6325727  14.4537795  44.8177099
   7.6663703  13.5597086  44.4775200   8.4187216  14.8730469  44.4678259
  58.1576967  23.2191324  25.3771186  57.5654459  22.7605224  25.9730577
  57.5779867  23.6984229  24.7851324  22.8289700  66.6928244  18.3871901
  23.0213046  66.5978527  17.4543333  23.6154056  67.0968342  18.7539673
  62.2737789  74.5031786  13.3895326  62.1696949  73.6931944  13.8888574
  63.1195164  74.8515034  13.6717176  58.6630201  20.5542326  61.1828089
  58.6335325  21.4792371  60.9384108  57.7762794  20.3579998  61.4851618
  39.6796894  65.2381134  33.1417179  39.2723727  64.8367310  32.3741102
  38.9452934  65.5820847  33.6502194  77.4790001  44.0626860   0.6321853
  78.2758379  44.0557814   0.1018681  77.5057030  43.2368183   1.1153646
  58.7174129  41.1033487  50.3909683  58.5430241  40.2870321  50.8594227
  59.4068480  41.5292549  50.9003973  24.7840500  39.7898173   4.5245367
  25.7367873  39.7567558   4.6107167  24.6314836  40.3564882   3.7683359
  80.5108833  64.5567894   9.3639427  80.5975151  63.6225510   9.5534760
  81.3761044  64.9205399   9.5518255  39.8367333  67.7433538  53.1236458
  39.4078088  66.9470215  52.8104210  39.8194861  68.3360910  52.3722458
  72.8599167  31.7364216  58.6202192  72.9459620  32.3690295  59.3334103
  72.5363874  30.9410715  59.0432787  55.7066870   6.5637898  53.8230371
  55.2716064   6.5187609  52.9716206  56.4574671   5.9758908  53.7397432
  58.8539028  11.1168790  50.7643604  59.2037487  10.3477621  51.2141418
  58.0360031  11.3107193  51.2222815  67.2972441  46.1803675  39.1782284
  67.2988224  46.1567211  38.2213211  67.6841402  47.0279884  39.3975067
  71.5016985  24.6536374  48.5622978  71.5267706  24.3892097  47.6426888
  70.6162691  24.4325447  48.8510323  62.0881319  24.1564012  57.2124672
  61.6513681  23.5454702  56.6189718  61.6616774  24.9972391  57.0470476
   0.4022437  20.4969072  36.4976573   0.4835320  19.9847162  35.6931162
   1.2142577  20.3246665  36.9743109  10.0383294  74.8367643  40.7266140
   9.8069018  74.8836708  41.6542292  10.3973377  75.7009602  40.5253315
  22.5384116  75.2054596  59.3910360  23.3282042  75.6982088  59.1682005
  22.8632641  74.4118118  59.8162746  68.9326715  72.7111816   7.4716341
  69.4811201  72.0242405   7.0927525  68.1074476  72.2722578   7.6779866
  70.0819969  62.1992159   3.4200522  70.7978344  62.3651648   2.8066435
  69.5697641  63.0078077   3.4147897  68.7775612  16.5480101  33.4781122
  69.2541504  17.2981143  33.1225324  69.2632818  15.7851255  33.1645679
  55.3688955  76.6272163  47.7493429  55.8539200  77.4462175  47.8504229
  55.6741285  76.0774565  48.4710264  62.7288580   8.0698484  64.1302061
  63.0094624   8.9592576  63.9146948  62.4176836   8.1291217  65.0334740
  73.2683182  71.7391205   3.0533919  74.1062403  71.4439631   3.4097695
  73.1273127  71.1869621   2.2843181  47.1289778  31.0290051  63.5353804
  47.9958963  31.2385154  63.1878376  46.8561316  31.8238711  63.9936113
  33.1183958  26.6450691  28.8963890  32.4605298  26.0385227  29.2363071
  33.2121587  27.3058701  29.5825267  37.9173541   9.7149873  56.9135857
  38.6685228   9.9430156  56.3658857  37.9852057  10.2994728  57.6685715
  47.4058437  21.7241406  54.6194983  46.9335413  20.8930469  54.6689034
  48.0561256  21.5894651  53.9301300  54.9686289  19.8722613  35.8689761
  54.0164661  19.8249304  35.7830572  55.2540684  20.3675365  35.1012158
  63.9505148  47.3373079  47.1177101  64.0363979  48.0770779  46.5163803
  63.0556917  47.0240641  46.9858074  54.8419333   3.0578735  58.2785940
  55.4449558   2.8230497  57.5732899  55.0581121   3.9670333  58.4857798
  70.2017546  73.5066891  10.6604242  70.6403828  73.6653805   9.8245692
  69.5460272  72.8377199  10.4635954  69.6040058  43.2536650  58.1644058
  70.5607748  43.2490921  58.1927633  69.3477440  42.4377680  58.5943699
  62.1676874  20.8485413  43.2187223  62.0117760  20.0880027  43.7786388
  61.4550018  20.8259535  42.5801325  70.2080297  24.1913080  64.5661497
  71.1337852  24.3988323  64.6931982  70.2114296  23.3438396  64.1211605
  56.7465687  11.8780243  52.3006773  55.7952690  11.9620514  52.3655176
  57.0873117  12.5677848  52.8701973  72.6031256  29.5796824  55.5659056
  72.6501989  29.4060755  56.5060520  73.2466316  30.2726436  55.4177904
  62.1899891   5.0706404  62.1310139  62.0385551   5.9425765  61.7662811
  61.3470459   4.6253505  62.0450497  54.3630505  17.6471043  40.8575535
  53.8772917  17.0231867  40.3181076  53.9163208  18.4822345  40.7189083
  64.2647982  10.5363226  37.1289110  64.4550991   9.7617429  37.6581025
  63.9891195  11.1979806  37.7632928  54.1945219  16.2597835  47.0273256
  53.2602596  16.0610139  46.9650745  54.2617226  17.1786487  46.7677069
  72.2399807   6.1734629  43.5732174  71.4573145   6.2786967  43.0322981
  72.0085621   6.5760887  44.4102192  13.7556136  27.1476769   1.8044722
  14.2389596  27.4779725   1.0471661  14.4033742  27.1202254   2.5086623
  39.5361972   7.5293410  55.5588579  38.8485789   7.7682751  56.1804104
  40.3123617   7.9955196  55.8694649  42.3669958   0.3171765  56.8315887
  42.1886826   0.3425433  57.7716923  41.9316339  -0.4788690  56.5266228
  15.7063698  48.3910064   0.0677957  14.8101401  48.6204968  -0.1778422
  15.7003140  47.4359081   0.1309003  66.7361403  30.9330678  33.0092978
  67.0080471  30.6854177  33.8930225  66.5875101  30.0998950  32.5621223
  41.8723583   5.8101267  17.0824790  42.3461103   6.5980613  16.8161130
  42.5402594   5.2524233  17.4813569   0.3011005  64.1499424  66.0675859
  -0.6215630  64.3150997  65.8735609   0.7030049  64.0014982  65.2116251
  50.0301456  36.9669294  54.3820572  50.0659370  37.9195595  54.2957544
  49.3426657  36.8107533  55.0295210  38.3002996   7.3464352  58.5248280
  39.1616273   7.7045941  58.7394619  37.7112103   7.7357405  59.1710854
  46.9915056  70.5202627  54.6444702  47.0270824  71.4077902  54.2877293
  46.0695457  70.2718687  54.5771980   3.5870171  65.9058189  16.1990523
   3.9469013  66.1657810  15.3510332   4.3009958  66.0563993  16.8185616
  44.7204685  11.2399340  50.4881954  44.1789341  12.0275819  50.4373646
  44.9299240  11.0340738  49.5771646  73.2763529  26.7406845  61.2907171
  72.3708010  26.4347172  61.2398434  73.6995363  26.1361408  61.9003677
  74.5956087  50.3837395   9.7183472  74.4873762  51.0938978  10.3509569
  73.8061142  49.8517704   9.8180503  55.0596142  39.5647836  51.5652227
  56.0007477  39.3911481  51.5464783  54.6875429  38.9351082  50.9477282
  37.6229572  30.6682038  58.4592581  36.8980193  31.2563634  58.2476711
  37.3105025  29.8007655  58.2020473  19.3032968  12.5331652  59.6449614
  19.2787969  11.8098831  59.0184689  19.9756610  13.1228781  59.3037939
  69.1815996  51.9007540   8.9698756  68.3914518  51.4126253   9.2014432
  69.8511219  51.5709925   9.5692354  58.3506107  33.5282207  60.5886269
  59.0295267  32.9884744  60.9935665  58.6824656  34.4232845  60.6591177
  58.4207392  21.6513133  55.9740448  57.9088449  22.4121428  56.2485123
  57.8453112  20.9039831  56.1371613   8.0012363  56.9009066   3.9847079
   8.7703127  57.1262646   4.5081264   7.2895521  57.4094534   4.3734461
  63.6092663  13.9307201  61.5623331  62.6744509  13.7307763  61.5136099
  63.7205982  14.6947026  60.9964991  57.6900625  30.7000208  64.5032215
  56.9154358  31.1120653  64.1205931  57.4316978  29.7892737  64.6446991
   4.1061369  35.7621360  41.9965315   3.4470302  35.3450894  42.5514030
   4.5818493  36.3460302  42.5872898  59.0177345  16.9670045  56.6008997
  59.2081928  17.5563037  55.8710480  58.8798094  17.5485456  57.3485756
  54.6536541  10.0271785  49.9395609  55.5147505   9.7600144  50.2610779
  54.0410614   9.4337171  50.3740358  40.4340506   8.9634585  58.8509369
  40.8934832   9.3461430  58.1034708  40.5644464   9.5929891  59.5601082
  28.1758237  19.2093587  53.8263369  27.9737329  18.2781827  53.9174509
  27.8586936  19.4389272  52.9528618  77.4986935  16.2131238  12.1577334
  77.7572107  16.4398861  13.0510294  77.9855347  15.4121912  11.9635117
  63.3478451  69.8714209   1.1530846  62.4490595  70.1656055   1.0051847
  63.8601017  70.3183651   0.4792386  70.0363302   5.7613319  49.0194464
  70.6948376   5.1678371  49.3805122  69.6685362   5.2862191  48.2743120
  71.7975903  15.5612731  38.1711006  72.5636482  15.8099639  38.6883450
  71.0587120  15.9608066  38.6300802  25.3082538  74.7085142  26.7892051
  25.7084990  73.9290142  26.4039660  25.8644986  74.9173450  27.5396800
  55.4100561  22.9404950  35.6014442  54.6393251  23.0602980  36.1562872
  56.0951805  22.6488376  36.2029219  42.6519918  71.6995049  65.2802515
  43.5927010  71.8250322  65.4049158  42.4767256  70.8297682  65.6395149
  77.8778744  20.9790778  55.3419971  77.4081516  21.0897756  54.5153522
  77.3485565  21.4528441  55.9835529  16.2393904  63.5649061   9.2855656
  15.6616092  62.8372002   9.0556842  15.6655216  64.2004681   9.7133154
  64.7926188  18.9482093  56.4661407  64.6485758  18.3603072  55.7246161
  64.3338633  18.5309160  57.1952772  13.2333088  23.2966709  39.3215871
  12.8289473  24.1280699  39.0736008  14.0827382  23.3024454  38.8803720
  41.9684601  12.8039372  58.0950117  41.4032936  13.5205984  57.8065443
  42.4764872  12.5717831  57.3176765  75.6896353  57.3214817   7.3819166
  76.4946365  57.1090174   6.9096220  75.5622768  56.5859842   7.9811275
  42.4766350   9.8497272  43.6428690  42.2122717   9.5958710  42.7586222
  43.0041599   9.1147089  43.9554405  61.3669252  22.8707027  51.9814157
  60.4264450  22.8751898  52.1594954  61.4750910  23.4785461  51.2499380
  25.1886511  48.9571381   7.7970999  24.5268154  49.3165779   7.2063309
  25.2437639  49.5931005   8.5103637   4.1651133  51.9730425   1.9429861
   4.0815327  51.6557026   2.8421763   5.0392944  52.3612309   1.9062763
   9.6919924  66.3364363   6.6428339   9.4159752  67.2198439   6.8870419
   8.8932270  65.8119345   6.6985756   1.2593198   1.3956743  50.4208279
   0.3508399   1.5245226  50.1482582   1.2464505   0.5780046  50.9183073
  64.1078091   7.1970958  48.0899668  63.4525347   7.7336460  47.6439142
  63.6180067   6.7399251  48.7735701  62.8993940  21.1680770  64.7924042
  62.0024061  21.0783958  65.1142693  62.8004265  21.4438128  63.8811350
  61.6963005  11.1801720  51.0913181  60.9658146  11.6302741  51.5156174
  61.2928677  10.6938601  50.3723097  52.0050716   3.4454221   3.5025719
  52.6764965   2.7666628   3.5711843  52.4309683   4.2375916   3.8301599
  78.5654449  10.5832863  50.7368994  79.5073223  10.7312989  50.8216810
  78.4725380  10.0936806  49.9196577  63.8441133  23.5312557  36.2683821
  63.4046364  23.2459068  35.4673409  63.3544636  24.3048787  36.5476418
  19.1869056  71.4557266  65.3304386  20.0438547  71.7510796  65.6380701
  19.3774009  70.6875658  64.7920418  30.8608270  73.1124163  65.5238008
  30.4654264  73.8876867  65.9223509  31.2272716  73.4282064  64.6978283
   3.6854324  71.6099977  18.6537147   4.2701751  72.2200108  19.1033769
   4.1673398  71.3512659  17.8681874  60.8976030  38.8676572  51.3205910
  61.2756586  39.0628052  52.1780443  61.4018106  39.4040704  50.7088232
  19.3432534  76.9697809  63.6992550  19.0742242  76.2643099  63.1108952
  19.6373081  77.6692629  63.1157398  75.3542709  40.4660273   2.3010975
  75.7534456  40.6469584   3.1520700  75.9483576  39.8407650   1.8859555
  50.1389265  15.8464456  44.9606800  49.9336290  15.0579596  45.4630470
  49.6206141  15.7622564  44.1603708  33.4577703  15.3566170  32.3840380
  34.2140174  15.5645657  32.9327464  33.6586976  14.4964576  32.0152783
  62.6465273   0.7037885  52.9037189  62.9692698   1.5837190  53.0981255
  63.1190205   0.1355420  53.5120630  54.6891880  23.5205936  43.0086422
  54.2688560  23.4033585  42.1566963  53.9627266  23.5607862  43.6306334
  31.4466310  10.0201046  60.8218241  31.7054391   9.5630091  61.6220188
  30.4958534   9.9162394  60.7834959  17.7042782  41.4454174   4.4015363
  18.4017074  41.5620661   3.7563872  17.3462415  40.5779505   4.2129973
  42.5889015   1.5674455  63.7707663  42.6652670   1.0789370  64.5903778
  43.3289909   2.1743493  63.7838221  55.8165312   6.7750007  44.4986629
  56.6916370   7.1073830  44.6985340  55.9008360   5.8237869  44.5643663
  56.6020966  33.0573511  46.7059422  57.2112560  32.7101898  46.0543013
  57.0235634  32.8791618  47.5466871   5.8376467  47.8805590  11.5606165
   6.1818570  48.0804014  12.4311423   5.6205744  48.7346888  11.1870122
  59.9896097  10.7726622  44.1859150  60.2393389  11.2626529  44.9693537
  59.4686270  11.3904643  43.6729527  63.7728357  57.9418468  47.6580191
  63.9602613  57.0192909  47.8312016  63.6604643  57.9893017  46.7086220
  67.5040960  27.6648784  60.5881071  67.6914787  28.5239768  60.2098608
  66.6152382  27.7443075  60.9343004  67.5344706  13.0183911  33.5817051
  67.1727610  12.5136685  34.3101645  66.7812586  13.2022154  33.0203533
  71.5919447  18.3352375  56.3315773  71.3812685  17.8361046  57.1206999
  70.7776403  18.3429039  55.8285046  62.4214125  39.4371581  48.1534481
  63.1742811  39.4549513  47.5625992  62.5234270  40.2198029  48.6950207
   7.0694262  34.1331458  43.4568405   7.0006925  34.9169230  42.9116774
   6.3033080  34.1716886  44.0293837  54.7403097  42.8423214  50.9390688
  54.4424295  41.9523048  50.7510090  55.5646420  42.9253149  50.4596710
  75.1958418  25.6032681  47.0070124  75.8073425  25.6823182  47.7391624
  75.0749302  24.6601653  46.8966866  61.3263416  20.2962470  56.5962315
  60.8886099  19.7058022  55.9830475  61.0134315  21.1678743  56.3541889
  71.6550779  33.0423665  33.2633662  71.5860796  32.1236682  33.0036235
  70.7937288  33.4116673  33.0686307  17.9346621  63.2631063   7.2950810
  17.3901212  63.2609320   8.0822927  17.5309455  62.6106358   6.7227811
  25.3429413  75.5661345  36.2736416  25.6012130  76.1133814  35.5319881
  25.7198000  76.0038233  37.0369530   4.8400176  37.4331474  61.4697170
   5.4297882  36.8640399  60.9752321   5.3414434  37.6805854  62.2466230
  60.0117874  28.6366820  48.1665897  59.6928453  28.2539606  47.3492575
  60.3410196  27.8906941  48.6679316  79.0509176  27.1758342  52.8333426
  79.1513205  28.1067586  53.0321646  78.3052921  27.1379137  52.2343159
  70.4460955  52.1055365  55.7601404  70.3169060  53.0517197  55.8256102
  70.1547194  51.7649269  56.6059017  74.8649073  30.7405114  32.0383167
  74.6498680  31.6371322  31.7812943  74.3125343  30.5711055  32.8014803
  77.5828314  50.5270529  58.1530762  77.5339127  50.8281708  59.0603590
  77.3948336  51.3072205  57.6313210  76.3905430  53.1485796  31.7281222
  75.8573151  52.3882151  31.9599652  75.8086920  53.8975525  31.8573976
  74.8222256  16.3228023  10.3397191  75.7210779  16.0110271  10.4450524
  74.4662189  16.3319421  11.2282050  68.5579395  42.8012943  46.2443256
  69.2474270  42.1389723  46.1977625  67.8514624  42.4500990  45.7023048
  59.6311617  44.4517851  50.4064751  60.0782919  43.7360191  50.8581209
  59.5727873  44.1612911  49.4962883  54.1863060  27.6833129  52.9368830
  54.9242306  27.8193760  52.3425865  54.5735598  27.2711015  53.7091208
  71.3113356  29.9310279  51.6111088  71.1684704  29.5105171  52.4590445
  70.4505062  29.9247384  51.1925793  78.0472231  25.0611448  61.7607307
  78.8616657  25.5493450  61.6400003  77.8738928  24.6690536  60.9048986
  79.7153902  24.9613214  36.8039179  79.1885138  25.1862359  36.0370755
  80.3655243  25.6614900  36.8615556  59.3207026  55.4942179  53.8124561
  60.1064539  55.1624060  54.2468834  59.6530819  56.0154533  53.0816555
  76.9812822  55.8775806  65.5311584  77.3370028  55.7383347  64.6534872
  77.2317457  56.7747593  65.7515430  70.9535980  44.3906975  41.1050987
  69.9979067  44.3397474  41.0878897  71.2318182  43.9412355  40.3071022
  64.0401125  62.4809885  39.3201137  63.9281893  63.0930901  40.0474644
  63.8257122  62.9934931  38.5406256  64.1945124  57.2844219  53.6121845
  63.6254740  56.7091227  53.1008625  65.0045776  57.3328590  53.1045532
  62.4378633  29.5112181  54.8116827  63.3355284  29.4799328  55.1425123
  62.2166204  28.5973215  54.6325827  76.3853979  28.4871459  64.6609545
  75.5817127  28.9913392  64.5340157  76.4578199  27.9493594  63.8724279
  10.9108984  24.3640089  35.9239435  10.9854043  23.4534693  36.2096024
  10.1114285  24.3853736  35.3979945  52.6734161  31.2071705  66.3076878
  51.9966459  31.3607955  66.9669390  53.4093571  31.7509031  66.5887213
  52.7816439   1.5869504  17.8406763  53.2254648   1.3708949  18.6607838
  53.4252691   2.0947489  17.3465931  58.0496597  31.7359924  42.9967070
  58.7451887  32.2612548  42.6010132  57.3447132  31.7452335  42.3492479
  60.4511166  42.3550653  52.2732639  60.3799868  42.6778126  53.1715965
  61.2493992  41.8268824  52.2710276  67.0391512  11.9539618  47.8904676
  66.2780905  12.5033450  47.7028561  67.7555513  12.3634148  47.4053383
  68.0104351  34.6436524  49.3654108  67.2389221  34.2339063  48.9741230
  67.8608847  34.5837259  50.3089523  64.7598505  29.6425867  50.6659365
  63.8654947  29.9749422  50.5891085  65.1536894  29.8148823  49.8106956
   2.8816080  15.4971135  58.1393957   3.1157169  16.4135325  57.9924202
   2.1812332  15.5303669  58.7910080  55.9006786  21.9330812  40.4190636
  56.5596008  22.4414849  40.8919048  56.2031317  21.0274267  40.4865026
  13.8337088  37.5058293  46.4983273  13.8959706  37.5671816  45.5451298
  14.7157919  37.2643685  46.7809200  68.0459213  47.3189163  31.2370491
  67.9398775  48.2249022  31.5271711  68.3483553  47.3911572  30.3317642
  67.5917053  18.6517096  41.0529852  68.0084324  17.8291452  40.7961655
  67.0582819  18.8962853  40.2967596  55.3947878  34.1656685  52.4784088
  54.5268011  34.0456271  52.0931530  55.2499866  34.0945053  53.4219122
  72.9496241  34.2295885  47.3681879  72.3849154  33.5757279  47.7802610
  72.3496246  34.7840500  46.8693829   4.3077624  38.0717802  57.0963812
   4.9799770  37.9346991  57.7638865   3.5317740  38.3386445  57.5891876
  80.9936714  56.0693216   5.3449762  80.5395699  55.4155827   4.8133343
  81.6829777  56.4065170   4.7727987   8.6491966  76.2828302  24.2577744
   8.0508149  75.6520128  23.8574743   8.1177795  76.7341900  24.9135947
  58.3129263  42.4839020  47.7992725  57.5759029  42.2585964  47.2315884
  58.1193733  42.0460796  48.6281729  60.8746719  24.3270802  61.6666412
  60.6891155  24.1856670  62.5949717  61.4167213  25.1157951  61.6481733
  76.5667868  32.5507331  58.7837458  76.9534445  32.9340672  57.9964828
  76.9937468  31.6983461  58.8696098  23.7684274  61.2303209   5.0143862
  24.2980766  60.6378794   5.5479783  23.5670757  61.9623375   5.5973423
  51.1951733  27.2432923  50.2626944  50.3405046  27.6184750  50.4748392
  51.8263149  27.8733015  50.6105137   5.6489652  45.0887728  50.8196640
   5.7546920  44.1707897  50.5699348   6.2212890  45.1978254  51.5791273
  68.0948591  36.5652275  44.1590166  68.5895634  37.3649240  44.3378544
  67.6938534  36.3389421  44.9981976  55.8914661  64.0718794  59.8973322
  55.9732056  63.7400913  60.7914639  56.7759562  64.3545818  59.6649742
  63.1705141  26.4221883  62.0107460  64.0704298  26.0980988  61.9740200
  62.8717566  26.2000799  62.8925848  12.1036208  35.4643512  47.5129604
  12.6544404  35.9656835  46.9117165  12.5240695  35.5687547  48.3665133
  80.0967121   7.0809305  42.3453569  79.1666603   7.3054057  42.3745966
  80.2918434   6.7536980  43.2234621   3.1620586  66.0450125  58.6088610
   4.0986049  66.2298536  58.6791897   2.9161048  66.3791084  57.7462339
  71.2798166  56.9392252  40.9671926  71.1206102  56.0185909  40.7590818
  71.5637779  56.9325161  41.8812752  53.8065577  33.5918188  48.9202404
  54.2185926  34.4206071  48.6761665  53.6276817  33.1583762  48.0857611
  77.0379257  39.2881823  38.7970781  76.9537973  40.1192999  38.3297515
  77.4286652  39.5248556  39.6382332   4.7589996  39.4952178  49.7699547
   3.8103718  39.3918443  49.6947813   4.9271140  39.4850588  50.7122231
  66.4093494  47.6916218  49.2939663  65.9560537  48.5339165  49.3299818
  66.7666149  47.5740671  50.1741791   4.7522411  43.6753511  41.4963722
   4.1801593  43.3099556  40.8215046   4.1538069  44.0806818  42.1239138
  64.4005585  35.3611684  29.3027139  64.1631460  36.2412858  29.0107203
  63.5642624  34.9431992  29.5080066   3.0188793  68.5293388   1.2974995
   2.0631881  68.4862423   1.2654243   3.3093357  67.7177715   0.8813025
  36.4479733   3.1457880  11.8310952  35.7470989   2.7604157  12.3569214
  37.0964622   2.4467543  11.7471540  29.9321294  70.0323915   2.0755972
  30.1351309  70.5978727   1.3304454  30.7778955  69.8777008   2.4962896
  11.1569583  47.8162241  62.0856190  11.2291634  47.6382113  63.0233479
  11.5591407  48.6775875  61.9736814  77.7524185  65.1255798  48.1773758
  77.7843142  65.8248711  48.8302183  76.9638109  65.3100252  47.6671648
   6.8893325  33.7468863  64.5467520   6.9124955  34.6212530  64.9355650
   5.9803742  33.6320233  64.2695665  49.2387819  32.9490709  60.0474119
  49.4050121  32.4960947  60.8740950  48.5046625  32.4743676  59.6575928
  50.3485107  15.3059947   2.9481345  49.9953699  15.3273034   2.0587134
  51.2474728  14.9949801   2.8415182  62.4229097  40.2018881  53.1440973
  63.0552626  39.5472765  53.4404850  62.0560694  40.5631113  53.9510584
  55.0796413  39.4086766  57.8893709  55.3477192  38.5611176  58.2443476
  54.5445871  39.7993088  58.5802841  63.3334637  62.2388887  31.6236138
  62.3799038  62.1632051  31.6586065  63.5319424  63.0118561  32.1521568
  79.3789244  41.7182970  58.9264536  79.0302324  40.9716082  59.4133806
  78.7639093  41.8409586  58.2033062  69.7749472  52.1029234  42.7397251
  70.1342440  51.7531586  41.9243717  70.1553011  52.9782486  42.8130198
  79.9714375  24.4217634  52.4791813  79.9318171  25.3584123  52.2859192
  79.1974974  24.0558982  52.0509434  73.3663321  23.6463094  59.6737862
  73.7764978  22.8827953  60.0800371  72.7074814  23.9298844  60.3076077
  71.3847876  36.2421966  40.7082367  70.9023666  35.4175448  40.7669687
  70.8937502  36.7621517  40.0720263  67.7261114  31.6630459  66.0568190
  68.0559015  31.5086508  66.9420481  66.8031073  31.8845034  66.1803198
  56.4756393  21.4451575  46.0866547  57.4009609  21.2928557  45.8947754
  56.0673666  21.5523219  45.2275467   0.9300677  21.8139005  47.2375345
   0.0016972  21.9102073  47.4498653   1.2748665  22.7065468  47.2604752
  22.1071100  72.1971655   8.7959027  21.6803718  71.4350271   8.4044069
  21.3942242  72.8161955   8.9534748  60.1466084  10.1544166  12.6815772
  60.4423141   9.8604792  13.5431969  60.6802082   9.6562678  12.0624244
  79.0001678  49.6024036  54.9929047  78.8471317  48.8080740  55.5046177
  78.3969688  50.2463293  55.3640509  46.2663174   1.6884315   1.9513813
  46.3005352   2.3017330   1.2172679  45.8914757   2.1966025   2.6707479
  67.2951889  19.2844939   2.7199519  68.0861044  19.6229982   3.1395930
  67.5866127  19.0002859   1.8536212  65.8596945  35.4874849  66.7694998
  66.0017347  36.0043287  65.9764481  66.7360258  35.2056265  67.0318556
  65.9485579  50.0226307  66.0642862  65.4959297  49.6203804  66.8056059
  66.2872362  49.2826796  65.5603027  10.8158255  45.9619093  57.3460102
  11.7657948  45.8445787  57.3507881  10.6718552  46.7275906  56.7899227
  11.8095505  43.6895466  59.1305876  11.4088261  44.2103481  58.4345865
  11.5037060  44.0969849  59.9409485  77.4789286  54.7872591  38.2953954
  78.0063486  55.3381586  38.8738155  76.8726730  54.3353176  38.8822794
  74.2259216  44.1845942  55.0850916  74.2457008  44.3370342  54.1403151
  74.7934771  44.8639393  55.4492474   1.5549782  32.8725219  66.7824984
   0.5987778  32.8738379  66.8262100   1.7605989  32.2874975  66.0533190
  50.0973749  34.6835589  49.2200565  49.6499586  35.2653646  48.6056042
  50.0898504  33.8287950  48.7893009   2.1345551  38.6342978  49.3988895
   2.4614550  37.8019190  49.7402287   1.3040537  38.7705588  49.8548841
  30.9082127  20.8491850  65.7738018  31.5555239  21.3700414  65.2984810
  31.4277816  20.2932692  66.3545275  78.3725929  37.1284962  57.6026392
  78.1118870  38.0412579  57.4796438  78.1649065  36.7057133  56.7693615
  39.9991035   5.9763378   5.3798324  39.4731545   6.0771376   6.1732113
  40.1402521   6.8711966   5.0707436  55.7523584  40.9259987  55.6726074
  54.9710369  41.1051798  55.1494837  55.4546595  40.3142929  56.3459730
  70.1285696  21.9339705  62.5193501  69.3436241  21.6870308  63.0083466
  70.5424118  21.1007762  62.2940683  58.3873796  41.5888166  62.7261400
  59.0435886  42.1376419  62.2967148  58.2692480  41.9870806  63.5885000
  56.9695997  32.2279716  56.3875198  56.8263865  32.9549551  56.9934988
  57.9187012  32.2006226  56.2663078  14.3678546  40.8265877  46.8516588
  13.5994363  41.3474607  46.6182995  14.7959054  40.6432486  46.0153627
  65.3145695  50.0991201  43.2509470  65.9863853  49.4786358  42.9682922
  64.6029854  49.5489883  43.5784101  75.2623177  42.0907211  42.7567005
  75.4242992  42.2395563  41.8251181  76.0685587  42.3736143  43.1881857
  65.9757710  50.4428625  59.9537468  65.6220818  51.2908173  60.2222586
  66.8963003  50.4739428  60.2143145  11.8183947  42.7992678  38.4222174
  11.6604292  43.0306196  37.5069284  12.5030792  42.1313524  38.3857059
  60.3167152  19.6941149  65.4333735  60.4350281  18.8347208  65.0288057
  59.4264460  19.9512446  65.1935005  76.7495823  41.0356808  45.1308918
  76.5980339  41.9477272  44.8830318  75.9111166  40.6019449  44.9725103
  47.1173334  40.4912138  51.0155201  47.0551682  39.5473337  50.8690405
  47.0198679  40.8757162  50.1443768  46.2525749   8.3953655   4.5572707
  46.6213036   9.0893143   5.1038116  45.7917118   7.8251863   5.1726830
  65.5812454  24.8508358  62.3980761  65.6685686  23.9013696  62.3137093
  65.8081722  25.0321269  63.3101463  69.9524212  58.6360884  44.6781063
  69.2458963  58.6561251  45.3235865  69.6091413  59.1276073  43.9319181
  53.2865810  33.1398368  59.7073078  53.0718803  32.2161388  59.5772409
  52.5255346  33.6124110  59.3700933  57.2507524  16.9227898  44.6569633
  58.2005835  17.0322037  44.6112585  57.0651579  16.8289423  45.5912971
   5.7631916  37.8947282  47.4665308   5.1784408  37.1606207  47.2784233
   5.4824758  38.2105470  48.3254194  66.6634560  35.9848261  46.5056229
  67.0281649  35.1500964  46.7996407  65.7186174  35.8350611  46.4726782
  78.9259481  43.7359238   4.2862672  79.5422554  44.0526867   3.6259189
  78.4829903  44.5249271   4.5985100  53.6307001   1.0306275   3.7772745
  53.4212160   0.1131643   3.6023194  53.5079432   1.1284804   4.7215140
  70.6058264  63.9166689  43.7326622  69.7777319  64.0006971  44.2053461
  70.4395390  63.2397461  43.0766487  52.5485373  23.4800577  44.6649122
  52.2895336  23.9654803  45.4481840  52.2497129  22.5854135  44.8278522
  74.8832989  50.1446390  51.6867971  75.4472065  49.6930933  51.0588264
  74.9514198  51.0691404  51.4482927  61.4099503  56.7419434   8.6157465
  60.7214451  57.2062016   9.0918350  61.1527586  55.8210182   8.6602914
  58.9797831  31.4055538  45.6056786  58.3901596  30.6869698  45.8341694
  58.9078951  31.4810324  44.6541691   3.3171955  29.7703004  46.3423824
   3.1272689  29.2897820  45.5366135   4.0848914  29.3307996  46.7080498
  69.4694138  20.6437159  50.5040836  68.7538958  21.1359167  50.9065914
  69.1107559  20.3378129  49.6710014  31.4721560  70.0290680   4.2625475
  30.6639242  70.5387354   4.3194029  32.1709013  70.6797552   4.3302885
  60.7798576  37.0482802  18.9406192  61.2474918  36.9979477  19.7742963
  60.1438951  36.3339353  18.9792228  53.5970640  33.9638281  62.3867750
  54.5009518  34.2500591  62.2552824  53.3590984  33.5363793  61.5640402
  65.0716496  38.7765884  47.3067141  65.3503799  39.1263103  48.1530190
  65.3266764  37.8543591  47.3329210  74.4906664  31.1697984  47.7822018
  74.6494579  31.2072015  48.7254000  73.5657310  30.9360719  47.7041245
  74.8035622  45.2088213  52.5790691  75.4199266  45.8888531  52.8508854
  74.4725275  45.5099440  51.7329168  64.7883892  23.8148904  49.6400738
  65.1667118  24.2015123  50.4297733  63.9338207  24.2371058  49.5524502
   3.1428313  18.1778872  52.3773479   4.0577596  17.9280615  52.5066710
   2.7551976  18.1282759  53.2511377  16.2050378  10.2272272  61.9494581
  16.1944163  11.0053670  61.3921309  15.6880045   9.5810413  61.4684677
  78.1400633  33.7741876  53.3387852  77.2420216  33.6375070  53.0369997
  78.5540915  32.9151940  53.2554626  13.5660696  44.2722178  62.6801157
  13.5183418  43.5251284  62.0836115  12.7054644  44.6861458  62.6148939
  13.8841009  76.9601250   0.8631667  13.8437688  76.5077877   0.0205533
  13.7321258  77.8804684   0.6484595  71.1150837  47.8567505  30.6868339
  70.8790541  47.7987719  31.6126609  71.4518547  48.7464523  30.5807781
  52.7263641  30.0064468  62.4205923  53.6121035  30.3277850  62.5892305
  52.5858736  30.1696873  61.4879370  44.3411970  67.7230120  36.2885594
  44.9231625  67.1237898  35.8211350  44.1344213  68.4040546  35.6485152
   4.5058724  50.7581806  34.0761447   4.5830703  50.1273680  34.7919297
   3.6892807  50.5222321  33.6359859  52.8834105  37.0211482  52.2831726
  52.4198771  37.8267121  52.5121593  53.4065485  37.2554755  51.5165901
  79.2761993  59.8954010  49.2184496  79.6159744  59.0140486  49.0635300
  78.6456013  59.7872734  49.9304104  13.4512615  76.7165041   3.4372526
  13.6124885  76.9599104   2.5256652  12.6870465  76.1413336   3.4000096
   4.0613100  48.5489368  55.3798103   4.8217779  48.4504080  54.8069143
   4.4185868  48.4837961  56.2654400  63.3264542  24.4447112  53.8596153
  62.9305458  23.9142990  53.1681299  63.6184311  23.8082361  54.5122099
  57.1448326  12.1967185  43.5838270  57.9951620  12.4708962  43.2403135
  56.8801403  11.4718664  43.0174685  11.4453423  75.6914568  37.8774309
  10.5963802  76.0268021  37.5892663  11.9158089  75.5013847  37.0657873
  65.6788540  55.8763170  51.3133287  66.0935831  56.6621017  51.6693830
  66.1881447  55.6710243  50.5292940  13.8498187  54.2234945   7.4674505
  13.1108236  53.8233948   7.9257494  14.4861984  53.5145521   7.3744380
  76.5587950  26.4259052  49.1234970  76.0695124  26.2313724  49.9228668
  76.1952400  27.2563696  48.8162708  72.1539259  43.6527061  58.7428808
  72.7538300  44.3985605  58.7359619  72.6920748  42.9099464  58.4691429
   2.4557994  27.8093696  36.1906624   2.2689298  28.3085442  35.3955913
   2.8441885  26.9932961  35.8753705   3.7047255  20.4724026  14.5186114
   3.9254758  20.0876236  15.3668129   2.8239399  20.1482654  14.3305087
  38.4583545  56.3750219   3.1506312  37.9637408  55.5566883   3.1068298
  38.5571074  56.6443682   2.2374323  75.0308275  66.1111403  48.1778479
  74.8249197  65.1769781  48.2120991  74.3259096  66.4927530  47.6546907
  73.7020016  23.7263370  50.0159550  73.4024239  22.9005766  50.3962278
  72.8972244  24.1837478  49.7723436  71.2054062  43.4903526  55.3677797
  71.1180258  43.0258322  56.2001419  72.0166206  43.9906120  55.4566956
  70.5212450  44.4153357  35.6902194  70.4492140  43.7528992  35.0030327
  69.7519255  44.9716568  35.5681968   9.4053459  36.9183969  51.5272379
   8.7223369  37.5496602  51.7535877   9.3914443  36.8831301  50.5707884
  79.9728155  45.7494926  61.6896152  80.2730179  44.8405886  61.6904116
  79.2100906  45.7493019  61.1112690  76.2077332  50.3924179  25.5843902
  76.0936069  50.1561022  24.6638680  77.1205235  50.6734705  25.6481266
  77.2784996  19.3850875  50.4194260  76.3460159  19.2294836  50.5694008
  77.3729181  19.3746316  49.4669533   1.4791209  42.0751619  44.1382074
   2.2848502  41.8695974  44.6123123   1.5401129  41.5657568  43.3301115
  39.8484373  66.5286493  16.8738735  39.2323923  66.6115093  16.1459613
  40.5157566  65.9210539  16.5549028   2.8102034  75.4535389  51.4318323
   3.1480581  75.8876896  50.6485081   2.4068192  76.1569977  51.9404125
  67.7329302  16.8173301  50.8254910  67.9763556  16.1917067  50.1431608
  67.3752165  16.2765920  51.5296745  81.5850544   5.5806780  30.6247735
  82.4487782   5.1948291  30.7708240  81.6365147   5.9575456  29.7463918
  76.2770844  51.7100525  46.8030453  75.4381466  51.5813684  47.2456026
  76.6939926  52.4254131  47.2833347  57.6478338  29.2457819  58.4512186
  58.4036112  29.5644045  57.9577398  56.8901587  29.5452976  57.9487753
  58.9055061   5.1251304   6.4400595  58.0009079   5.4376388   6.4236498
  58.9321184   4.4338104   5.7785463  70.4941654  18.0561805  64.3778229
  70.1850510  17.9628789  63.4767294  70.2689219  18.9553881  64.6164131
  56.0212612  11.0033619  65.9337378  56.3208628  11.9072080  65.8361006
  56.4370346  10.5337834  65.2106476  69.6275663  37.6079130  38.5028481
  70.2313328  37.5318241  37.7639937  68.9460135  36.9603515  38.3228874
  81.3496685  17.3037541  32.6410675  80.5200863  17.7299404  32.8564429
  81.9386387  17.5522161  33.3535361  69.6186304  14.5766890  61.2118340
  68.9862108  14.1387451  60.6421947  69.1823387  14.6237099  62.0625210
  56.6932821  34.0671730  58.5049105  56.3873863  34.9579716  58.6755991
  57.0753622  33.7819719  59.3349123  78.0730629  32.6974583  64.6676922
  78.1740046  33.6289716  64.4719267  78.1210995  32.6467633  65.6223392
  60.7338333  43.5235167  47.7857924  61.0916042  43.1087208  47.0008230
  59.9431515  43.0212975  47.9828644  12.0937765  59.2062950   4.1757977
  12.0919430  60.1267481   4.4384655  12.9041505  58.8538599   4.5436522
  68.2106972  44.5162344  41.2300825  67.7800751  43.7324810  40.8887196
  67.9592896  45.2116203  40.6222534  78.5869932  30.7066250  59.9329710
  78.3838940  31.3511610  60.6108761  79.5052958  30.8680487  59.7164249
  76.9210434  39.4742608  51.2761450  77.1981716  38.5746431  51.1025953
  76.9154406  39.8933887  50.4156017  69.4069767  34.6289754  42.7955770
  68.9877844  35.4362607  43.0935717  69.5097733  34.1050911  43.5900688
  63.8284636  19.1557419  52.8035164  64.1802216  18.4812295  53.3844900
  64.4750595  19.2281187  52.1014452  67.0236540  31.7191935  62.1831656
  67.6411581  32.1298981  61.5779877  66.2516499  32.2845244  62.1579313
  69.3265152  37.7260995  50.4751492  69.3268347  36.7689896  50.4619551
  68.6474752  37.9566669  51.1091614  72.2388697  27.6427531  53.1215477
  72.6955891  28.1864142  53.7634802  71.9971609  26.8529391  53.6052847
  69.7155476  49.5622158  37.5087285  68.8161182  49.5263910  37.8342676
  70.1078224  48.7382650  37.7976060  63.3574915  38.5894275  36.7875242
  62.5131226  38.2826614  36.4571214  63.7000799  39.1465616  36.0886192
  11.8100095  64.2247295   3.6130098  11.8369973  63.3806276   4.0635556
  12.6247466  64.2546844   3.1114742  77.3519516  53.7883949  59.5014858
  77.4962330  52.9827929  59.9978924  76.5713358  53.6100054  58.9770317
  68.0160570  25.1480913  43.7753105  68.4669924  24.3065095  43.7072849
  67.0866442  24.9204898  43.8002920  41.9698378  27.6749744  66.7782485
  42.4735591  26.8839779  66.9701525  42.5531813  28.2043686  66.2344776
  55.0817251  18.5037649  43.7454891  55.2698326  19.4212008  43.5476017
  55.7588816  18.2503259  44.3727493  35.8414769  10.1597369  55.4084969
  35.1558232   9.4935256  55.4561615  36.5246439   9.8430371  55.9994459
  25.8074331   0.6078622   2.9742387  25.9109592   0.8843485   2.0637062
  26.1302900   1.3484320   3.4876108  77.0913506  52.5217915  29.3342352
  76.8379307  51.5992689  29.3031359  76.6648817  52.8609276  30.1212168
  79.9967623  32.5142288  57.5709820  80.5815887  32.5632668  56.8148041
  80.4918671  32.0210195  58.2250834  76.4063644  45.0582314  61.8507099
  75.6516171  45.5114746  62.2264290  76.0680103  44.1996622  61.5965462
  56.2799406  37.8009486   1.6458204  57.2363234  37.7615118   1.6490722
  56.0596704  38.2032752   0.8056735  31.1908531   9.2102993  11.5058446
  31.1953664   8.5385025  12.1876812  32.1150327   9.4181103  11.3682377
  18.5282314  75.5200434  32.6416969  18.2618308  76.4319229  32.5245070
  19.3720651  75.5728197  33.0904627  72.1192884  70.8327198  26.7337871
  72.9023552  71.2946892  26.4344168  71.8402863  70.3184509  25.9762168
  78.8604450  48.6643791  66.9303131  79.5874023  48.6695433  66.3076258
  78.4514523  49.5237494  66.8281364  78.4194088  34.4147229  46.6042089
  77.4626446  34.4133186  46.6330194  78.6325407  34.7710657  45.7417536
   8.3346653  54.7846127  37.3830199   8.1150222  55.1189613  38.2526159
   7.7381039  54.0475893  37.2520781  54.9975681  52.1222830  63.3162403
  54.3604374  51.4164686  63.2061243  55.5906534  52.0280170  62.5708580
   3.3083323  60.7001495  51.3135862   3.1191507  60.3000116  52.1623087
   2.8633720  60.1380920  50.6792879  79.5009518  44.9502611  44.9718666
  79.5307398  45.8304501  45.3468561  80.0528145  44.4244576  45.5508375
  69.0250635  53.9286089  62.3009872  69.9230146  54.0328026  61.9862509
  69.0719461  54.1404009  63.2332850  67.0510721  26.9653964  52.6860046
  66.7696476  27.8672767  52.8397703  67.4941063  26.9940209  51.8379879
  75.4389763  57.3775148  57.7138090  75.9516287  58.0522394  57.2686481
  74.5553827  57.4748802  57.3588324  60.3601456  28.8499379   0.5605957
  61.2503719  28.5405493   0.7279518  59.8099661  28.0772090   0.6887531
  73.1627464  42.6211834  29.9272370  72.8498602  43.4101295  29.4846392
  74.0488720  42.4922752  29.5890093  63.3184147  44.4130087  45.1953554
  64.0778589  44.9934006  45.1440716  62.7255297  44.7337484  44.5157623
  64.3359995  49.6350956  49.0139389  64.1013718  50.1112795  49.8104525
  63.5447836  49.1477442  48.7843943  28.3256078  74.6868706  17.5278187
  29.2410374  74.6411896  17.2518957  28.2620549  75.5104256  18.0115056
  46.2366867   9.4124681  14.6958530  46.9077158  10.0505626  14.9383152
  45.6816816   9.8753291  14.0681922  77.5960827  40.3914213  48.4231043
  77.9711008  39.5450854  48.1795788  76.9942522  40.6011295  47.7089214
   8.3332628  58.3158922  44.0326452   8.8433725  57.5548363  43.7554932
   7.5597799  57.9442596  44.4567251  81.2601471  30.3120494  52.4535799
  81.5496254  30.4738641  51.5556669  80.3070259  30.2502966  52.3905087
  44.3711996  19.6820056  17.3204172  45.2354622  19.7886455  16.9230402
  43.9446878  19.0095556  16.7892611  82.0611477  38.5592556  43.1402445
  81.4588356  39.2405868  43.4389687  81.5322590  38.0081320  42.5633812
  12.3211288  37.0064449  54.8416853  11.5713322  36.4115572  54.8537874
  12.2331643  37.4859405  54.0179253   1.2141024  37.2130990  32.4743533
   1.3652602  38.1443334  32.6361799   2.0643564  36.8018675  32.6298809
   6.4673388  32.6629186  61.3441896   5.8861220  33.1695914  61.9113779
   6.3914025  31.7642641  61.6649437  58.5457993  16.3096511   2.5097087
  59.0718937  16.7481303   3.1784329  57.6478720  16.5870416   2.6914033
  69.5334291  54.4696093  52.8944302  70.2816200  53.8729715  52.8730011
  68.8210297  53.9472675  53.2630444   8.8612008   6.8994653  61.6907549
   9.6333009   7.3760235  61.9956875   8.5429448   7.4102819  60.9464359
  26.6835809  15.7796288  19.2650831  25.7617927  15.9293771  19.4751132
  26.8589354  14.8915768  19.5762837  34.3884921  18.3081079   1.6051929
  33.9416432  19.1527653   1.5494195  34.9274063  18.2696104   0.8150521
  74.2327118  58.0095911  36.1169267  73.4729576  57.8248215  36.6690707
  74.3131304  58.9632940  36.1315131  42.2896051   8.1019223  21.1715341
  41.6223240   7.4666589  20.9119034  41.9013405   8.5680491  21.9119430
  39.9165463   9.1188562   9.2727667  40.6241894   9.5336413   9.7661507
  39.2116213   9.7663951   9.2747635  21.6559482   9.4126856  38.0348086
  22.4191785   9.0194947  38.4580255  20.9077764   9.0688747  38.5229301
   8.7431955  49.9725771  55.8347321   7.8827620  49.6831560  56.1382437
   8.7380594  50.9203577  55.9685993  78.0536938  44.8926067  37.5515103
  78.4230232  44.5582581  36.7341757  78.5039139  44.3993378  38.2372332
  74.8674107  64.4251823  58.4920645  75.7270288  64.8350048  58.5887098
  74.6361732  64.5672655  57.5741482   3.9866349  76.7603827  56.9095659
   4.4242918  77.2864008  57.5788927   4.2198846  77.1825361  56.0827589
  69.7349405  49.2058372  56.6778326  70.0937223  49.2131472  55.7904434
  69.2762709  48.3682823  56.7438412  74.5279360  36.3375163  43.5306501
  74.2538548  37.2356367  43.7163782  74.2967653  36.2017250  42.6117659
  52.1698999  72.5751591   7.5495702  52.7245617  72.9918337   6.8900508
  51.4867067  73.2207251   7.7304780   3.9786753  30.3445745  55.5838013
   3.3451444  29.8543596  55.0598145   4.0127614  31.2081075  55.1722431
  77.8109169  64.0002298  43.8033199  78.4698677  64.4423628  44.3386078
  77.2818899  64.7102976  43.4397745   8.2238245  47.7228689  34.1744304
   8.8267583  47.4807978  34.8773575   8.1707454  48.6773825  34.2225218
  20.0759554  32.1471095  65.1035452  19.7584784  32.8200126  65.7057428
  20.1516342  31.3597322  65.6425619  74.7628021  55.3469181  18.6141026
  74.4583845  55.4118013  17.7089214  75.4919195  55.9648752  18.6664665
  61.1189508  12.1236229   8.5951132  60.3172493  12.5358975   8.2733357
  60.9829473  11.1877286   8.4473342   4.8727885  63.9947033  52.5749922
   5.6359565  63.8764572  53.1405258   5.0771540  63.4893751  51.7881584
  67.6182461  34.4885039  52.0744705  67.1146631  34.8799634  52.7881908
  67.7351618  33.5753489  52.3365927   0.9208815  34.6097732  52.5139952
  -0.0135921  34.7399378  52.3526001   0.9661678  34.2914987  53.4155941
   0.4946667  27.9576921  20.1256251   0.8524136  28.6759043  20.6475639
   0.5469566  27.1944046  20.7008529  77.9323149  42.5348091  52.7718163
  77.7650166  42.7718353  53.6839914  78.2817745  41.6447687  52.8158474
  10.4807103  63.6219406  36.3425088  10.1581550  64.5222092  36.3011813
   9.8023200  63.1043148  35.9088230  17.6076353  42.7007055  56.3151789
  18.2270360  42.5813341  55.5952311  17.5473082  41.8376923  56.7248106
   2.5791597  53.2885551  34.2295361   2.3667826  53.5996151  35.1095200
   2.5262597  52.3349476  34.2933273   5.1910716  48.0234432  40.7772589
   5.8348846  47.3153496  40.7957840   4.8890680  48.0488729  39.8693037
  70.6897402  59.8005009  56.0888290  71.4745331  60.0207663  56.5906429
  70.3615427  60.6432581  55.7753277  62.5022984  66.1462212  51.1484480
  62.4194765  67.0524883  50.8517170  63.4307432  66.0470867  51.3591528
   2.0486569  36.8270540  54.5936012   1.6154793  35.9787631  54.6884155
   2.9087469  36.7029715  54.9949503  72.3300743  18.0868816  53.3738375
  72.0449305  18.2777357  54.2674255  71.5315771  18.1476712  52.8494930
  57.4771261  50.9448528  58.5611629  56.7867422  50.2835226  58.6085701
  58.2256222  50.4830503  58.1833601  77.5624847  64.6602678  32.8047037
  78.4036875  64.9643946  33.1454587  77.6898098  63.7237072  32.6534605
  71.6122723   4.6947971  12.2669709  71.8321037   5.6257302  12.2313488
  71.4362335   4.5255113  13.1924891  78.8958168  52.5815344  63.0640650
  79.4040060  53.3907461  63.0079603  79.4500780  51.9212914  62.6480055
   2.8345683  61.8292856  46.4868116   2.9211396  62.4747324  45.7852888
   2.6227602  62.3468399  47.2636652  11.3944387  56.0042763  50.7284641
  10.6153035  56.3619995  50.3027725  11.8618000  55.5483580  50.0285053
   1.3517499  48.1582546  54.8559713   2.1540813  48.2437563  55.3709316
   1.3578945  47.2506618  54.5518875  62.7745581  52.7216196  48.8752317
  63.6606693  52.5090456  48.5822296  62.6381636  52.1699095  49.6454573
  65.6425428  60.5218601  43.4676266  64.9019861  60.9853363  43.0764723
  65.5353594  59.6146631  43.1817341  14.7530127  36.3582277  35.4721212
  14.5532322  35.4283237  35.5797958  14.7495162  36.4958382  34.5248699
  77.6006126  33.6720228  56.4840698  78.3519411  33.2048273  56.8494034
  77.3460531  33.1554747  55.7194710  36.1370301  66.0881424  20.5561399
  37.0548415  66.2260675  20.7902956  35.6444597  66.5353680  21.2443256
  56.6095781  60.3733635  53.0226946  56.1803341  61.2073994  53.2133913
  57.1992064  60.2325678  53.7634706   2.1014878  64.0278673  39.2946601
   2.7628523  63.4481382  39.6724772   2.6044494  64.7421598  38.9034510
  71.7282963  28.4040475   9.9794728  72.1097279  27.7781677  10.5951166
  71.9893742  29.2610407  10.3165650  32.9960108  11.2106168   1.6447565
  32.8911519  12.1260691   1.3855575  32.6788831  11.1794186   2.5473577
   3.5081786  60.5138016  56.6378832   2.9630193  60.5607796  55.8524990
   3.6720246  61.4276791  56.8707228  50.7114553   4.3251163  12.8412318
  51.0808992   3.4436771  12.7882278  49.9864006   4.2440572  13.4608746
  66.4561749  29.4381905  52.7690411  66.9696760  30.2241254  52.5823593
  65.6538343  29.5495749  52.2590637  61.6107559  47.3076344  56.1572456
  60.7860422  47.5030565  55.7123995  62.2769451  47.7517080  55.6326294
  81.5136433  32.7588797  41.4365911  80.6021976  32.4692321  41.4765835
  81.6690826  32.9330993  40.5083036   1.5728311  55.2318668  41.5447521
   2.4525623  54.8644304  41.4593315   1.1791518  54.7449446  42.2687340
  75.3623676  33.6119509  22.8112602  76.0267544  32.9413033  22.9695511
  75.8034515  34.4377828  23.0104566  42.4595547  37.6117659   2.1543333
  42.1236897  37.7372670   1.2668234  41.6813612  37.6390815   2.7110156
  23.0152369   2.1291041  45.7814074  22.0895624   2.3610139  45.8560753
  23.0672956   1.2374737  46.1256695  80.6312561  41.7314863  54.7877121
  80.2043533  41.0366154  54.2865753  80.8797932  41.3139582  55.6124115
  59.9623060  23.1100392  12.8908098  60.3227043  23.9216447  13.2480717
  59.3532276  23.3974409  12.2106218  72.7733755  54.8036718  24.4943929
  73.1647301  55.5835533  24.1008806  73.5066843  54.3530798  24.9132729
  80.9191990  41.3313961  33.8237619  81.6059494  41.7864943  33.3364391
  80.7814789  40.5171585  33.3397341   2.2779752  45.7385349  46.8673944
   1.5495989  45.4552698  46.3147116   2.0671001  46.6437578  47.0961714
  15.3684163  34.8596692  56.1200905  14.9549484  35.3159261  56.8529654
  14.6649218  34.7462702  55.4809761  67.1760178  51.1403894  35.7175779
  67.4963808  50.5371952  35.0469398  67.0503759  50.5924129  36.4922810
  80.0426769  45.3472757  65.4853582  79.7988701  46.2621212  65.6262493
  80.9038162  45.2631283  65.8947182  56.3619137  50.9752893  55.7369041
  56.8176603  50.5999851  56.4903450  55.6077242  50.4012918  55.6028938
   4.2727610  58.4803724  53.8180304   4.6954867  59.3259287  53.6677837
   4.9614859  57.9315710  54.1931343  54.8690987  74.0454006  57.1350861
  54.5269680  73.8420391  56.2645578  54.4731522  74.8880911  57.3571968
   1.7122859  58.4443092  54.5375824   1.6587232  58.3435678  55.4879570
   2.6434672  58.3468437  54.3384981  72.0568562  68.6098051  44.5855474
  72.1605539  67.9502201  43.8996696  72.8107023  69.1894722  44.4763279
  77.8062677   7.7370775   8.7176198  78.1115818   7.5443745   7.8311211
  78.4413671   8.3671731   9.0579987  78.3162212  30.7860923  52.2656298
  77.9349375  30.6043553  51.4066648  77.5864601  30.6879640  52.8772259
   2.6322624  52.2388649  64.7872591   1.7934760  52.0098877  64.3869638
   2.7588648  53.1616926  64.5668268  55.5569935  35.4689741  47.8998947
  56.3730049  35.8885241  48.1725264  55.8327389  34.7763824  47.2994661
   8.4912163  60.8084679  52.5183773   9.0586329  60.8085442  51.7474890
   8.9104009  61.4194345  53.1243753  69.7057486  18.4204423   0.8943771
  70.0126743  19.2237711   0.4740288  70.3278971  18.2697296   1.6060296
  80.1691151  37.1723080  54.2232895  79.8717403  36.3782382  53.7791586
  81.1241341  37.1083975  54.2143106  61.1085367  62.5796890  36.1893487
  60.2677202  62.1343088  36.0849524  61.7617512  61.8947697  36.0464001
   2.7466857  42.3106241  49.8417997   3.3425295  42.3059225  50.5909157
   2.0273784  41.7362309  50.1042843  54.7096634  25.3009486  59.0643787
  54.5271587  26.0016489  58.4383249  53.9305544  25.2667260  59.6193981
  73.5853052  38.9752936  43.9108753  73.7581921  39.3632221  44.7686911
  72.6822376  38.6629319  43.9668798   1.0694438  14.4288921  48.5343790
   1.2750548  15.2846789  48.9106607   0.2728164  14.5765162  48.0246496
  12.0478165  50.4381704  46.2626457  11.8470633  51.0541868  45.5580473
  11.2142360  50.0053310  46.4471006  77.7340174  42.9585981  49.5996714
  77.8113651  42.8314924  50.5452394  77.9065800  42.0940304  49.2268801
   3.7310278  47.1016741  50.8874178   4.4695356  46.5965843  51.2276030
   3.2759967  46.4961100  50.3022051  76.1463737  48.3963299  49.5824766
  76.6984653  47.6640368  49.8566580  76.7652798  49.0780210  49.3207788
   9.2335832  51.0828686  45.1647997   8.5315377  51.6535950  45.4772711
   9.9314463  51.6832113  44.9024963  53.9270306  34.1836119  57.1704197
  54.2470837  33.6624169  57.9067326  53.5935736  34.9859881  57.5719595
  59.7512531  30.9687662  61.8596792  60.3560305  31.6710091  61.6202354
  60.3174496  30.2537155  62.1501207  56.0686731  53.6608124  55.9307337
  56.3035774  52.7337170  55.9700775  55.1501894  53.6639404  55.6612730
  63.4606361  57.9823542  44.9534750  62.9377556  58.7826109  45.0026369
  63.4812307  57.7666092  44.0211296  57.7953911  45.7158661  66.3006830
  57.5130272  44.9348259  66.7765760  57.0126581  46.0075855  65.8332825
  19.1142881   2.0773716  46.7758560  18.7541366   1.9408679  45.8995628
  18.7866020   1.3376498  47.2873878  55.9448290  22.8998327   1.3146722
  55.7588625  23.0228209   2.2455446  55.0825834  22.8697085   0.9001133
  51.4334440  12.3743975   4.6602172  51.0380363  12.5324941   3.8029581
  51.1922312  11.4727724   4.8726308  76.4968061  64.9666834  63.4211302
  76.7339277  65.8332157  63.7514782  76.2500048  65.1175022  62.5086737
  32.6582861  16.3869274   2.3014171  33.4608340  16.9066417   2.2562025
  32.3648763  16.4777577   3.2079998  67.2154951  75.6866455  24.0130472
  66.8281603  75.4206085  23.1791234  66.5417957  75.4894352  24.6637917
  29.5468092  58.5446596  30.2933240  28.8599300  58.2659578  29.6877241
  29.1638231  58.4233046  31.1621308  62.5633287  56.8523264  62.4396324
  62.3964357  55.9546137  62.7268457  63.3641768  56.7921925  61.9188070
  79.3806887  52.6573277  47.5966835  79.3853378  51.7451191  47.8866625
  78.7933254  53.1003237  48.2090521  81.6430378  43.5570145  48.0446100
  81.2066936  42.7498484  47.7719879  82.2031307  43.7885046  47.3037052
  59.7248745  18.4908414   3.8950238  59.3308306  18.9931035   4.6082509
  60.6592178  18.6918426   3.9482424  66.9866133  54.5221472  25.6696367
  66.2293196  54.4363928  26.2487602  66.7295074  54.0636969  24.8696685
  76.7550659  41.1789513  21.9117498  77.1637869  40.3217888  21.7915249
  76.4805174  41.1868906  22.8286982   6.5803927  64.6145344  56.3004303
   7.1135634  65.2241993  56.8105936   6.9982564  64.5934677  55.4395103
  77.3980427  63.4195614  24.3234873  76.6133690  63.8164568  24.7016287
  77.9978275  64.1537285  24.1912317  68.1612968  48.1777668  59.2859793
  68.8123941  48.2542324  58.5885143  67.4666739  47.6390266  58.9071751
  65.9047031  29.0779018  62.8763342  65.3609943  29.1661549  63.6591673
  66.1677933  29.9736953  62.6652145  65.3560925  37.8397369  38.3571291
  64.6675873  37.9097772  37.6958537  64.8882675  37.6535296  39.1711926
   0.9213209  36.0546899  41.4646912   0.9488668  35.4120302  42.1735382
   0.0092461  36.3439822  41.4389896  41.4862919  15.8813512  13.4974468
  40.5631685  15.9403026  13.2512784  41.9165611  15.5112767  12.7266383
  75.5919075  39.8438859  18.7396646  74.9030447  39.9065042  19.4013166
  75.8899927  40.7453442  18.6181951  59.7580099  43.8338375  61.3556099
  59.6100616  44.3596315  60.5695534  59.3415833  44.3320417  62.0589018
  69.5192719  49.0610743  44.6817303  70.3818703  49.0004158  44.2712688
  69.6605682  49.6045876  45.4568815  22.0997047  74.5288563   0.4145637
  21.8698430  75.4481888   0.2795999  22.9743123  74.5551252   0.8026367
  70.2290678  62.1697092  54.9676037  69.8586702  62.9331970  55.4104662
  69.6680880  62.0409107  54.2027855  70.2001476  50.0315475  47.1870661
  69.7662640  50.5736589  47.8459215  70.8285284  49.5076609  47.6839685
  49.2372322  24.9219871  14.7724009  50.0564957  25.4148674  14.8182976
  49.3870687  24.2716837  14.0861905  10.2208340   4.8979300  42.1767902
  10.9466016   4.9353862  41.5538216  10.5057108   4.2680103  42.8388166
  11.9828343  68.2093716  42.9173183  12.1210718  68.5826254  43.7878370
  11.0628641  68.3887529  42.7231312   4.5756438  50.6383944  47.3340273
   4.4287276  50.2389574  48.1914091   4.6903744  51.5702391  47.5204182
  56.7002487  18.3991849   5.8304739  57.0944548  19.2694819   5.7720006
  55.7628155  18.5668623   5.9270781  76.8889380  11.9737899  15.6237626
  76.7336702  12.6121521  14.9276173  76.0620785  11.4978015  15.7010341
   7.2879934  51.8216038  48.3775854   7.4069732  51.6187525  49.3054485
   6.5518320  52.4331093  48.3585882  74.4788763  66.0445984  66.7355011
  74.7122738  65.1413615  66.9497953  75.0105498  66.2535866  65.9674655
  22.8608084  68.8547516  47.6616716  22.6523995  69.7307253  47.9864168
  22.0650578  68.5703945  47.2120523  68.3086157   2.7861020   5.1283401
  68.4217405   2.1222313   5.8085680  68.8203764   2.4600974   4.3880323
  47.5785160  68.5190630  -0.1061209  46.6995859  68.8757944   0.0221607
  47.7587986  68.0315399   0.6976543  22.8410244   5.4730213  65.9476280
  22.2285652   4.8154441  66.2773514  22.4469042   6.3107151  66.1908770
  71.4603281  68.8354349  57.6649380  71.5911102  67.8972340  57.5274324
  72.3227072  69.2222071  57.5134611  48.5132864  37.4515812   0.1462307
  48.6458376  36.5235607   0.3397359  47.7946546  37.7157633   0.7206955
  22.8884053  27.7828813  10.9612036  22.3350430  27.3789382  11.6296721
  22.5130105  28.6541605  10.8339834   6.3878828  51.8273401  45.5332470
   6.2780946  51.5154362  46.4315224   6.3017988  51.0408974  44.9944305
  45.4962111   5.9177607  28.6541677  44.5836163   6.1792266  28.7768054
  45.9027719   6.0589224  29.5091629  61.5714216  47.7939653   0.0513671
  61.3818741  46.9206715   0.3943772  60.7124853  48.2055569  -0.0437744
  50.5589437  72.1524763  45.0496960  51.2406826  71.4938164  45.1824522
  50.2405643  71.9919682  44.1613817  64.0769625  60.8399963  35.9062624
  63.6371660  59.9925089  35.8385873  64.9706745  60.6705236  35.6082773
  33.6881661  12.0499742  35.1996708  32.7491927  11.8833542  35.2821231
  34.0692472  11.6701210  35.9913278  35.0784206   2.7426082  54.5419550
  35.1128888   1.8222451  54.2812347  34.9810529   3.2212546  53.7187576
  69.1957951   2.0656024  55.6562233  69.4839430   1.1800624  55.4348087
  68.3482075   1.9418813  56.0834455  77.1772337  51.3545322  60.8522272
  76.2832928  51.1797380  61.1464214  77.7276754  50.8305788  61.4342213
  68.0554533  66.6026878  32.3728943  67.2252417  66.6078329  31.8964982
  68.1495619  67.4974012  32.6997972  31.7359638  75.3581095   6.3429654
  30.9101892  75.8362675   6.4184135  31.7101574  74.7213793   7.0572072
  68.2138157  73.5667849  64.0867281  68.4911633  74.0585041  63.3137321
  68.3714056  72.6509523  63.8572788   6.5092778  12.4919724  56.7898798
   5.5781221  12.2770798  56.8446732   6.8241191  12.4244320  57.6912880
  34.8828697  22.3943996  58.2491827  33.9546394  22.1738243  58.3264256
  35.2135992  21.8047094  57.5716019  14.9474919   8.6571091  46.4981508
  14.4082940   7.8670830  46.5349674  15.8480883   8.3338255  46.5235901
  70.5212831  59.4625425  40.7862091  70.7540989  58.5374069  40.8647060
  69.7091389  59.5483351  41.2854958   2.1372584  45.7405663  53.9265871
   1.6950573  45.0496864  53.4332609   3.0509692  45.4582882  53.9676142
  55.8817339   9.9172813   4.8687863  56.3750792  10.6029272   4.4185269
  54.9779463  10.0434852   4.5798731  44.2761517  45.1121378   2.6899457
  44.4580984  44.4425964   2.0305240  44.9828577  45.7492638   2.5857052
   9.1291904   5.2682519  56.4887524   9.1969085   6.1402488  56.0998249
   9.0840441   4.6745577  55.7392740  55.2107573  18.0875504  30.5674100
  55.0431299  18.2005990  31.5030146  54.5175171  17.4986577  30.2693224
  81.6837597  13.8228154  55.1608706  81.2122440  13.8148069  54.3278980
  81.0550785  14.1792154  55.7885456  61.9294596  26.8993783  53.9461184
  61.0996056  26.4242864  53.9029884  62.5938034  26.2145472  54.0228462
  37.5243235  74.0844536  62.4792957  37.0058107  74.2630768  61.6947746
  37.3705554  73.1575441  62.6621151  15.3479338  75.2671337  37.7596116
  14.8081839  74.7032595  38.3136392  15.2198267  74.9264860  36.8742967
  61.4742613   1.8116416  31.2065649  62.4099493   2.0131724  31.2170959
  61.1598825   2.0887078  32.0671630  53.8289070  19.0379059  46.4945507
  54.0832663  19.7833586  47.0384598  54.3802357  19.1106832  45.7154655
  19.5100927  73.2101822  28.7451172  19.9073124  74.0700102  28.8834810
  18.6945784  73.2397890  29.2454100  67.5392818   2.3580274  48.6652184
  67.2600269   3.1410602  49.1396761  67.2771168   2.5207680  47.7591181
  28.8501906  69.0062857  36.1015987  29.2014599  68.1159115  36.1100388
  28.0751920  68.9527225  35.5423641   4.3201315  64.7160101  66.4203644
   4.5186493  64.4984722  65.5095959   4.6836972  63.9884853  66.9251013
  59.5147276  25.8006835  53.5495329  58.8776398  26.4536047  53.8394356
  59.0450144  24.9682641  53.6012459  63.0500364  50.6083822   8.3821815
  63.2413769  51.2131834   7.6653600  63.8892508  50.1890469   8.5722136
  56.7842436   5.9729731  28.0610037  57.6709080   5.7963473  28.3754349
  56.4989471   6.7353368  28.5646296  18.7077105  70.2234364  42.6223516
  18.5557282  69.8954821  41.7360210  19.4763613  69.7414923  42.9275370
  24.0624380  20.0989270   4.0992817  23.2093143  19.7651482   3.8217846
  23.8723636  20.9577608   4.4767812  18.2581437  66.3802385  56.0852528
  19.1022944  66.0017395  55.8395290  17.7807033  65.6571198  56.4919186
  68.9606380  19.8169458  43.6543751  68.5147667  19.5316005  42.8568745
  69.8101091  19.3767905  43.6244059  80.2496529  70.1960802  44.0521288
  80.7382393  69.5968771  43.4877968  79.3504667  69.8688602  44.0273190
  53.4216404  17.8892183  61.5848970  52.5601816  17.6651466  61.2328863
  53.2494926  18.1552637  62.4881268  31.7515349  18.3986938  13.0892944
  31.1445069  18.1740189  12.3841202  31.2772989  19.0402102  13.6182451
  55.9544376  -0.2199476  18.9317167  56.3411477   0.5228693  18.4681368
  55.1285365   0.1176817  19.2783093   2.4078509  68.8627386  46.1404276
   2.8104118  69.3322134  45.4098320   1.5753202  69.3125725  46.2845612
  46.3565445  56.7919111  63.9466000  46.4972878  56.0389900  64.5206499
  46.5601444  56.4660454  63.0699062  79.1709518  72.2894716  46.1362600
  78.2382011  72.1940851  45.9436131  79.6000767  72.2188330  45.2835608
  73.9925385   5.3916579  64.3518019  74.1175795   5.0539720  63.4649181
  73.3344698   4.8134831  64.7376680  55.9261751   8.4707445  29.3256330
  55.3054523   8.8823992  28.7244010  56.3109255   9.2012739  29.8099113
  33.8957596  67.9004717  36.4620614  33.0019975  67.5578356  36.4574075
  33.8139081  68.7780142  36.8354964  50.3756332   8.1445187  47.9921865
  50.1453638   8.1633532  47.0632887  50.1011896   8.9992547  48.3243608
  61.3086462   8.3720136  53.7897921  60.8028507   8.6953515  53.0442381
  62.2218418   8.4683681  53.5195541  72.9426956  26.1294889  45.5750942
  73.6317825  26.0437322  46.2339115  73.3528614  25.8393860  44.7603321
  48.6313629  74.1009998  48.7634087  47.8452349  74.6412706  48.6837864
  48.7927055  74.0502691  49.7055483   7.5099277  29.3286848   5.6320083
   8.1807172  28.9516926   6.2013501   7.8796804  29.2648363   4.7514182
  74.3324852  21.3056827  60.6186199  74.0890980  20.6367946  61.2586069
  75.1504946  20.9863210  60.2376986  31.7391253  63.9582205  42.6813889
  30.9688640  63.3905220  42.6560211  32.3641133  63.5405588  42.0887852
  64.0055656  16.0577440  32.2806334  64.4732761  15.7399094  31.5083265
  64.6970987  16.3154888  32.8902078  61.2462568  12.4487746  60.9531116
  60.4507542  12.3204100  60.4364538  60.9887791  12.2278571  61.8481731
  46.8435335  54.8675013  13.1227589  47.1494961  54.8492146  12.2159600
  47.2199965  54.0814161  13.5184574  45.5507231  74.7488785  34.3832397
  44.6777344  75.1278782  34.4856262  45.6583977  74.1850519  35.1492286
  35.3799295  56.3931799   4.1194427  35.1566553  57.3208427   4.0431759
  35.7130837  56.1550951   3.2542506  39.3131852  77.1908808  10.7209504
  39.9684453  76.6591787  11.1727917  38.4758067  76.7942524  10.9611905
  63.1967831  17.6987171  41.7442274  63.0200768  16.8066788  42.0430136
  62.4573088  17.9115176  41.1749077   0.3362963  12.6238620  34.4097614
  -0.3097212  12.0030534  34.0728784   1.0962023  12.5123918  33.8384914
  73.7881947   2.8959990  24.4259143  73.6029148   3.6110514  23.8171411
  73.0660963   2.9227331  25.0536823  52.5099611  16.3449371  64.3841839
  51.6229296  16.6535139  64.1992807  52.9718828  17.1205354  64.7024727
  71.2808990  51.7792225  19.0308654  71.8672752  51.5757465  19.7595561
  70.9656668  52.6636791  19.2168772   7.0987630   5.5229515  46.2687731
   6.9514990   6.3896394  46.6474533   6.5139914   5.4898554  45.5116892
  72.3627090   9.7280216   5.6403261  71.7542553  10.4664683   5.6670380
  72.2424221   9.2880064   6.4818430  64.5630264  -0.0685408  32.5174189
  64.5038748   0.5622848  31.7999291  63.8040352   0.1233069  33.0681992
  69.5429277  26.1127281  29.8518395  69.0194464  25.3960562  29.4932532
  70.1164293  25.6929159  30.4929996  59.1080332  20.8262277  45.1887274
  59.9175739  20.8585215  45.6984615  59.1650009  21.5794158  44.6007681
  61.5290117   1.5007253  47.8425932  62.2067404   1.0494257  47.3393583
  61.5898418   1.1221111  48.7196255  50.5510473  70.3135109  37.9688406
  50.1085186  69.6845579  38.5387683  50.8765888  70.9885502  38.5643029
  65.5265284   2.7369535  58.0162573  66.3613796   2.2935128  57.8658533
  65.6307316   3.1612688  58.8679218  27.8928256  64.5820808  16.8806815
  27.0192790  64.8682308  17.1476388  28.0259871  63.7551451  17.3440135
  59.6748018   1.2413207  21.2051058  60.0156641   1.5440957  20.3634572
  60.4470539   0.9333843  21.6794825   0.6392275   5.2126211  55.5097103
   0.8773530   5.2947855  56.4331675  -0.0270021   5.8862412  55.3733063
  70.5376291   9.3383437  41.2777233  70.3313923   9.1957361  42.2014952
  69.7802258   9.8117441  40.9335327  48.3619547   9.3205881  39.2596865
  49.2206907   9.2683345  38.8400722  48.4226036  10.0830305  39.8352170
  60.2065992  12.9107285  53.4815407  60.5577946  13.5992742  52.9169178
  59.3015814  13.1749737  53.6469030  55.9265041   1.5440480  39.8424578
  55.7900047   1.7687263  38.9220667  56.5676260   0.8335447  39.8230267
   4.0592539  17.0678604  42.1453571   4.9743104  16.8791080  42.3533869
   3.7249756  16.2517715  41.7732143  25.7991576  71.1538744  54.0442038
  25.9233689  71.2877560  54.9838209  26.3867569  70.4305744  53.8255930
  81.3108444  17.6634085  53.9883327  81.6028976  17.0696580  54.6799946
  80.3864956  17.8199089  54.1815138  71.2058353   7.5206065  56.2620354
  70.4304123   6.9593996  56.2608480  71.4611530   7.5782996  55.3413200
  50.6637859   5.1367873  31.5447187  50.7060385   5.6525701  32.3499608
  50.1336336   5.6660247  30.9488320  72.7801085  21.2821174  39.5671439
  73.4637165  21.3866973  38.9053464  71.9817305  21.1228323  39.0637040
  20.0867629  72.6526499  50.7904673  19.8962355  73.1768274  51.5683937
  21.0365510  72.5350189  50.8076382  54.1062117  37.5797844  49.8933220
  54.6340275  37.3569226  49.1265249  53.2578468  37.1685219  49.7278738
  49.1025257  15.1196253  42.5020361  49.3683910  14.2894590  42.1065950
  49.0187883  15.7213223  41.7623186  17.4020612  33.6082959  54.2637444
  17.2480774  32.6705265  54.3782282  16.6007757  34.0233183  54.5830107
  52.9330873  10.7165122  61.4778900  53.2504988  11.6158378  61.3960505
  52.0710135  10.7280052  61.0620403  64.6307373  21.7747855  21.1740494
  65.3600597  21.8256140  20.5561996  63.8635969  22.0274329  20.6603456
  66.6061735  17.8157413  64.5246172  66.1605644  18.4946418  65.0313282
  66.6124344  18.1512439  63.6281633   0.3854247  13.6491585  20.6144381
   1.1268207  14.2542934  20.6341362  -0.0511769  13.7778044  21.4564943
  29.3597293  76.0201693  13.8097870  30.0276041  75.6437492  13.2366526
  28.9838743  75.2674103  14.2662084  70.8344078  18.8198066  33.0630493
  71.0416651  17.9300189  32.7774763  71.6863489  19.2202652  33.2364225
  80.6240749   7.0009041  25.6979322  79.7790098   6.6005397  25.4934669
  81.2615490   6.4742386  25.2157664  78.5794878  26.8977475  58.1588840
  78.0614996  26.2154293  58.5859203  78.9794159  27.3821640  58.8811207
  16.1421680  73.0858803  56.8510008  17.0014548  72.7343750  57.0840311
  15.7549512  72.4170828  56.2861919  69.9136400  75.7731962  58.6073112
  70.3027868  76.5596819  58.9897251  69.4048452  75.3868532  59.3201256
   1.5157270   3.2847679  40.3457451   1.1971426   3.8658381  41.0364676
   1.0830089   3.5974053  39.5512366  17.9237378  23.4552670   1.2430543
  18.5121071  23.2103491   0.5288643  17.5315070  24.2805457   0.9579183
   9.0850377  19.6346557  53.5980225   9.1446716  18.7308550  53.9075708
   8.4468585  20.0458765  54.1809940  63.9353609  12.9295206  28.0760717
  63.2101822  12.3055923  28.1086206  64.1813612  12.9628158  27.1516252
   7.6348972   9.6796691  40.9992695   8.3729833   9.0762478  41.0849667
   6.9328088   9.2729527  41.5070963   3.9510635   8.5499585  29.2683005
   4.6348816   8.7433308  29.9095726   3.1687966   8.9783961  29.6157646
  72.0390749   7.5984001  26.3164616  71.9493198   8.0071783  27.1773171
  72.5461721   6.8033189  26.4805603  65.2784443   9.1658193  58.6923027
  64.8257446   9.0632939  59.5294285  66.1540842   8.8121992  58.8486576
  34.8563337  71.1353874  33.2496309  35.0349712  71.3107634  34.1735148
  34.5503044  70.2285862  33.2327843  50.2466965  73.1309414  31.8302298
  50.3621340  73.8786077  31.2437940  49.6721554  73.4565115  32.5231481
  40.5406046  70.0309324  38.5579133  41.3285398  70.3410435  38.1115723
  39.9308205  70.7669687  38.5064864  65.6097364   3.4764361  55.5695057
  65.5769825   3.0976409  56.4479542  65.3103065   4.3780825  55.6861544
  56.0188103   1.8598598  43.8716173  56.6557407   1.9666688  43.1651115
  55.2605820   1.4541616  43.4512234  66.5767193  23.9795828  38.9339852
  66.5575790  23.9210224  37.9787683  67.4432135  24.3331695  39.1349578
  17.2832966  12.6377904  44.4652510  16.4741719  12.3066711  44.8550081
  17.2055697  12.4253261  43.5351706  56.5056801  21.4678621  53.6723757
  56.8394709  20.8720827  54.3430948  55.5976105  21.1953950  53.5404491
  38.4073901  16.0830402  39.4065142  38.1602168  16.9699156  39.1446161
  37.6840448  15.7859600  39.9585557   4.8114330  14.2507410  33.1892872
   4.5792237  13.7514484  33.9722419   5.6460345  14.6651363  33.4082603
  61.2636566  15.6393802  16.7067969  60.6519079  14.9357843  16.9234776
  61.6494036  15.3728378  15.8723009  61.8945551   9.9023592  59.7348547
  61.8316221  10.0150251  58.7863922  62.3669529  10.6779659  60.0373602
  39.9211955  66.8215799  27.0698380  40.4252386  67.0571613  27.8487325
  39.1728926  67.4183941  27.0792317  74.9918842  24.9908805  34.4031858
  75.2961397  25.1488566  35.2968884  75.7425642  25.2120376  33.8520026
  65.3294992   2.9267544  37.8030300  65.4222631   1.9823644  37.9285479
  65.9682846   3.3119813  38.4028530  20.5636072  74.1805553  36.9956422
  19.6229684  74.2339706  37.1646929  20.7179284  73.2586479  36.7894602
   1.5352206  31.2786865  10.5773592   1.9542061  31.2261534   9.7183347
   0.6132863  31.4488244  10.3841698  73.0114317  32.4430823  44.8163128
  72.3689795  31.8962002  45.2684212  73.5591841  32.7977538  45.5166006
  18.0137742  75.4452038  61.7148352  17.2773969  75.2370739  61.1398029
  18.7643719  75.0110149  61.3094759  81.9436932   9.0815538  37.5260067
  82.5584507   9.1449869  38.2569504  81.1950397   8.6040890  37.8834510
  46.2780666  19.8732579  48.8631010  45.9724903  18.9676237  48.9148712
  45.5368042  20.3941822  49.1719675  24.4263506  64.9267483  49.9013948
  23.6140227  65.2611732  49.5212460  24.2675471  63.9902925  50.0200033
   6.8268770   0.9492847  47.4194622   5.9923244   0.7759910  46.9838905
   7.4258345   1.1759160  46.7080402  51.9817066   0.3757816  46.2731028
  51.4440584   0.4125179  45.4820156  52.2224998   1.2867549  46.4415598
  43.4696865   8.6163408  29.2662024  42.8192186   8.4095371  28.5951138
  43.1250143   8.2170534  30.0649524  76.4837694  28.9461231  59.8800087
  76.4001036  29.3030143  58.9957809  77.2753048  29.3553877  60.2295828
  16.3286388  60.3120279  32.9199195  16.8088233  59.6536541  33.4221148
  15.4290748  59.9857807  32.8958368  39.9547958  75.5467939  45.4712248
  40.6361628  76.1652040  45.7349396  40.4014874  74.9321651  44.8890495
  28.2122040  68.5806990  57.1813297  27.6303959  67.8519726  57.3974085
  28.9842463  68.4415436  57.7297974  68.4503412  20.9583664  64.4081497
  67.4944782  20.9372473  64.4540882  68.7333727  20.9915686  65.3219461
  70.6932926  15.0409257  28.2126164  70.6739807  14.7871864  29.1353703
  69.8717022  14.7047770  27.8545332  37.0360947  18.1334543  43.4889698
  36.7859221  19.0461481  43.3453083  36.2050772  17.6595151  43.5209656
  46.4733028  64.1330338  30.7329583  47.3197126  64.2794847  30.3106165
  46.6899157  63.9550018  31.6481709  39.5449495  14.3287981  45.0580263
  39.0854526  13.6364555  44.5828915  39.2938900  15.1354253  44.6079683
  38.5397673  66.8203211  44.7906876  39.0063500  67.3761606  45.4148483
  38.8282967  65.9317350  44.9990129  67.0283222   9.9148113  39.2392278
  66.0968161  10.1168931  39.1515279  67.4733973  10.7270479  38.9975476
  35.6379128  49.5233202  65.6256914  36.4184546  48.9869499  65.4868078
  34.9190283  48.8929224  65.6708288  34.3717360  70.9048700  23.0751133
  34.2285752  71.2149239  23.9693165  35.3228593  70.8312082  22.9965425
   0.7896952  13.4426546  41.8620253   1.2748897  13.3797228  42.6847410
   1.4071041  13.1400371  41.1960983   8.1793272   3.3146042  12.5429809
   8.2511979   2.4880870  13.0204058   7.6382816   3.8694620  13.1047940
  67.6471329  16.1149681  46.7198038  67.5647163  17.0555329  46.5623951
  67.0577002  15.7127964  46.0817909  33.1022406  71.0075712  65.6814146
  33.1097078  70.7864714  66.6126966  32.6666594  71.8589592  65.6408644
  65.5419731  24.7448802  44.8844099  64.6646500  25.1212358  44.8144722
  66.0087490  25.3339696  45.4771376  38.9517045  20.2075648  64.7727156
  38.8015008  19.4279289  64.2380762  39.8656321  20.4390383  64.6072197
  53.7307358  13.1811917  46.3409233  53.0848932  13.2535446  45.6381512
  54.4976854  13.6489773  46.0104847  58.0977249   5.7892948  48.7632036
  57.3478413   6.3513499  48.9581442  57.8297377   5.2918196  47.9905891
  72.6915932   6.8319076  49.6989298  72.7959585   7.6761460  50.1377916
  71.7475843   6.7463249  49.5656633  45.7448626  71.4054918  30.4155445
  45.2755117  72.0816422  30.9041810  46.6286516  71.4143038  30.7830691
  64.4652700   8.2860082  39.1444993  64.3835068   8.2984561  40.0981188
  63.6283875   7.9378426  38.8368750  72.3426104  25.0898957  26.6201091
  72.6978683  24.8657584  25.7600021  72.4075508  26.0438395  26.6648936
  34.2544127  13.6526132  45.4782486  33.5765147  13.3398044  44.8792171
  33.8111949  13.7277138  46.3233232  11.2443709  64.6137428  41.5362692
  11.7565346  65.1513577  42.1403313  10.8635747  63.9303541  42.0878172
  66.1969995   5.7868552  57.8173447  66.9347095   5.6391764  58.4091234
  65.4767847   6.0455620  58.3923149  58.6120605  12.0169389  36.5832639
  58.0429983  12.7219927  36.8919730  58.6625481  12.1471465  35.6363058
  68.5720587   9.3767697  34.2245507  68.2638741   9.9785531  34.9021292
  68.0714607   8.5742116  34.3712926  10.6524920  68.2792568  57.7431822
  11.3690221  68.2007360  57.1133757  10.2600718  67.4065924  57.7695417
  77.4791670  21.2889791  30.2041888  77.2265625  21.9747019  30.8224154
  77.3645401  20.4731035  30.6914663  70.5989599  10.6041968  32.6229954
  69.9192858  10.5079401  33.2900858  70.1331139  10.5140305  31.7916775
   5.9462655  14.5079005  30.7287359   5.3898251  14.2930532  31.4773655
   5.3366846  14.6042156  29.9970484  79.7032738  38.1381106  37.3527527
  78.8071442  38.4507108  37.2284198  80.1351261  38.8376784  37.8430057
  17.5606585  62.0170403   3.2564652  17.2617245  61.1970663   3.6495471
  17.8013492  61.7795992   2.3609644  56.2214470  58.5585451  37.6414895
  56.8598795  58.0481672  37.1433425  55.4658461  58.6316490  37.0584321
  63.9506054   9.1812545  56.3945913  64.5001984   9.1580009  57.1779394
  63.0807638   8.9294171  56.7047215  65.1094961   7.6910073  12.9967523
  64.2065382   7.4321759  12.8126025  65.6404018   7.1188462  12.4426782
  66.1668873  18.6233974  38.7366438  66.3279867  17.9026532  38.1277084
  65.2318764  18.8078690  38.6474252  52.3383665   5.7233220  48.1793356
  51.7704868   5.3261620  48.8396454  51.7776537   6.3560742  47.7304983
  68.0422354  15.1377153  58.0711174  67.4793005  14.3960929  58.2932281
  68.7434149  14.7563744  57.5427628   9.6708214  57.6121426   8.8122356
   8.7749571  57.3471546   8.6038148   9.7757596  58.4608173   8.3821505
  66.5910530  23.9806533  36.0853052  66.8038368  23.5647964  35.2498293
  65.6820297  23.7315464  36.2521911  70.8490086  27.7853751  46.3385487
  71.5582752  27.1695018  46.5225887  70.5778694  27.5781322  45.4442501
  38.6132240  71.4809608  48.6283207  38.8572407  71.9595289  47.8360701
  39.3613887  70.9101248  48.8033199  39.5596862  67.3774624  56.2675667
  39.5841265  67.8292084  55.4240274  40.1813364  66.6560364  56.1710119
  78.4075880   0.8225583  55.9618330  78.3643389   1.7117065  55.6100130
  77.8637266   0.8497463  56.7490482  70.2659607  48.1172705  33.1730747
  69.7344637  48.8872671  33.3751702  69.8691797  47.4115992  33.6837816
  74.4787502   1.5846293  28.0528092  74.7989941   1.0188335  27.3502779
  73.5939026   1.2665381  28.2319713  19.9038053  24.4931650  48.0081224
  19.5813024  23.7815285  47.4551296  20.5473971  24.0776777  48.5820484
  52.9851961  17.5660205  26.4634943  52.0914412  17.8489947  26.2702274
  53.3868361  17.4374938  25.6041932  68.2550001  42.1640921  12.2741461
  67.8527117  42.9835749  11.9863188  67.5250959  41.6441631  12.6105130
  60.2299738  28.1686044   9.0460795  60.4786158  27.2908020   9.3356919
  60.0666666  28.0739164   8.1076777  10.7455325  60.5461740  66.4723492
  10.9419692  59.6981764  66.8705273  10.0744414  60.3536034  65.8175325
  71.6392612   3.3336553  61.9982624  71.9042444   3.5329208  61.1003160
  72.2716284   2.6791996  62.2949600  17.0008850  64.5012236  38.4533978
  16.7287397  64.0763998  37.6399517  17.6108575  65.1841450  38.1745076
   2.1556279   8.6586052  34.8785305   2.6978397   7.8697842  34.8777962
   2.4372435   9.1420925  35.6551671   6.0249442  17.6259434  54.4172907
   6.1318994  16.7536747  54.7966862   6.1771506  17.5000656  53.4806919
   0.5869266   5.4176474  24.6595788   0.7064696   4.5913118  24.1914868
   1.4567815   5.8170700  24.6663928  62.6140261   9.1876423  26.6556740
  62.2168589   8.5800374  27.2796154  62.2726536  10.0459301  26.9067454
  57.0863771  10.1617730  41.9141531  56.9686651   9.2196423  42.0356655
  57.6039886  10.2370536  41.1125040  73.0544949  13.1831443  38.4109831
  72.3263645  13.7836063  38.2512975  73.6127949  13.6447322  39.0366626
  49.1653299   2.8390923  38.4658790  49.4152164   2.5710425  39.3501520
  49.6534395   2.2503696  37.8902197  61.7273808   3.8639963  52.8310728
  61.7490005   4.4084269  53.6180687  61.4721441   4.4649035  52.1310759
  75.5095291  21.6495538  38.3194399  75.8146667  22.3754644  38.8636613
  75.9820938  20.8861995  38.6514187  68.7014055  68.5761452   2.7322328
  68.4142208  67.7228785   2.4071293  69.1010618  68.9997530   1.9725850
  13.2259464  61.1510897  16.2850690  13.0381298  62.0893526  16.3099730
  13.4353650  60.9246159  17.1912062  73.0938578   7.5317484  12.0181775
  73.8244247   8.0640501  11.7032826  72.8416920   7.9377562  12.8475153
  59.2997551   3.0374929  29.9930787  58.6203623   2.8573501  30.6428480
  60.1064157   2.7136451  30.3938985  20.8125567  65.7487202  44.0458679
  21.2332726  65.2928829  44.7748661  20.9869599  65.1952267  43.2846403
  57.4541807  16.2621856  41.5691948  57.7710152  16.2711358  42.4723959
  56.5153360  16.4335358  41.6430092  73.0900526  23.1532693  33.8589621
  73.4091759  22.7544785  33.0494213  73.6745930  23.8967919  34.0063214
  26.0394001  22.9497409  14.3437243  25.5518007  23.6743069  13.9519572
  25.9041142  23.0516696  15.2858174  49.7794819   4.5206645  41.8597317
  50.3455400   4.1353324  41.1909056  48.9329576   4.0922475  41.7328787
  66.6976595  17.9490018  59.8504400  66.5814829  17.0659673  60.2011299
  65.8321333  18.3512926  59.9229240  69.9414444  52.4736261  58.5737514
  70.0743055  53.3450460  58.9468575  70.6757212  51.9566822  58.9051676
  54.1633701  21.0593009  10.1311123  54.4811344  20.9240246  11.0238361
  54.4534683  21.9429994   9.9049485  76.3816357  40.0382566  30.8059216
  75.5637741  40.5186558  30.6772757  76.8652582  40.1658297  29.9897909
  68.3548737  40.6626225  56.4554453  67.7585936  40.3470469  55.7764101
  68.6328745  41.5254164  56.1479807  78.8202381  14.5070195   3.0432263
  79.2910767  14.9901819   3.7222666  77.8957367  14.6668112   3.2329452
  81.1680317  29.5345616  40.9795904  80.3581333  30.0331640  41.0877752
  81.1502838  29.2437530  40.0678110  68.3148527  14.7104073  63.6249065
  68.7136459  14.7683954  64.4931412  67.4556828  15.1195443  63.7281609
  77.1921110  22.0567632  34.5828009  76.8780327  21.2942600  35.0687790
  77.2657537  22.7470946  35.2417779  10.2908266  30.5655789  37.2093916
  10.2042532  29.7120428  37.6339102   9.4260573  30.7362843  36.8362093
  64.4930363  33.5672426  21.0160899  64.0853262  32.7064633  20.9208870
  64.1079807  33.9276195  21.8148971  68.6740112  16.4242625  39.9358416
  69.2755651  15.9834456  40.5358791  68.0229139  15.7576835  39.7168064
  24.7332525  13.6094224  27.9634786  24.0911865  13.0613613  28.4147096
  25.5386925  13.5004032  28.4690595  76.4657402  23.9367414  39.5453978
  76.2982702  23.8580108  40.4845381  76.6883087  24.8589873  39.4182849
  52.4208403  12.5066805  33.4892988  52.1983528  11.7888987  34.0821886
  52.6599979  12.0746410  32.6693130  66.1063623  18.4127605  18.3650410
  65.2733707  18.7295079  18.0157244  66.3625336  19.0729213  19.0090883
  13.7129080  30.8093047  29.0854239  12.8767085  31.0954309  29.4530272
  14.3730950  31.2471724  29.6226907   1.0375323  11.4327931  36.7773890
   0.7260404  11.7552543  35.9316802   0.5743013  10.6046712  36.9033384
  74.1652346  33.2745361  31.9678164  73.9168882  33.6692810  31.1319137
  73.3323717  33.0689406  32.3924351  73.6807346   5.4691994  27.0555758
  74.6035290   5.2156800  27.0353460  73.4891748   5.6021643  27.9839396
  54.0389347   5.3144830  33.3251357  53.9799452   5.7862520  34.1559100
  53.3599901   4.6422118  33.3827257  81.2052345  29.6390390  29.8423409
  81.1191559  29.3764758  30.7587934  80.5280590  30.3042388  29.7191548
  67.2575521  49.9301577  32.2474337  67.9215384  50.3416538  32.8006315
  66.4269638  50.1377296  32.6755285  70.0915909  18.1432283  51.6238928
  69.2557764  17.7181470  51.4316702  69.8710155  19.0687084  51.7290735
   1.8084776  24.6085882  47.5885773   1.6198881  24.9123716  48.4764862
   1.5136643  25.3226852  47.0234394  76.9827080  14.6409833  28.5753870
  77.9110241  14.8731434  28.5516691  76.5450144  15.3565192  28.1142306
  58.3326626  16.0717714  32.4723864  58.6759806  16.9228935  32.2004390
  57.9565620  16.2307346  33.3381295   6.5304488  41.0140896  48.4523869
   5.7541710  40.6046438  48.8344574   6.9177783  40.3300428  47.9062319
   5.7545316  15.6184196  58.9409399   5.9332711  14.8048484  59.4125175
   4.8942560  15.8944702  59.2570972  66.5864754  15.4813337  55.3433466
  66.8536472  15.7778585  56.2133598  65.8968735  16.0921669  55.0834131
  78.8775301  20.6666350  40.6498575  78.5038280  19.9471390  41.1586857
  78.1243944  21.2060285  40.4088783  74.9416208  14.4026625  60.7059050
  74.3360710  14.4413471  61.4462042  75.0651503  13.4670067  60.5461550
   6.0256016  21.0437369  52.5827789   6.3335592  21.6428590  53.2628107
   5.0713372  21.0735989  52.6514816   1.2744117  33.6333585  34.9882746
   1.7131284  34.4830179  34.9453831   0.3976545  33.8328099  35.3165245
  78.6477566   4.3187422  60.7777262  78.9533281   4.2212975  61.6795969
  79.0362453   3.5782677  60.3118896  35.7444882   6.9493091  21.3977981
  34.8230052   6.9760168  21.1401391  36.2051702   7.3936683  20.6860757
  80.1881123  30.5970287  34.5717931  80.8390617  30.5064034  35.2676916
  79.4370079  31.0092139  34.9986172  43.7295580  76.4180422  60.9939671
  44.2819881  77.1319532  60.6755543  44.2506599  75.6285191  60.8478785
   8.1040299  32.8603697  46.1139345   8.5928583  32.7671456  45.2962637
   7.3071092  32.3483157  45.9762764  76.3470984  30.0958872  57.1963072
  75.7817078  30.8678842  57.1720552  76.6409349  29.9857044  56.2920094
  49.6379852  13.3572125  45.7315779  49.1316652  12.7591503  46.2812948
  50.3495979  12.8191924  45.3846264  81.4193153  21.0106707  39.6376395
  80.5232906  20.6851077  39.5517302  81.6400337  21.3375473  38.7654757
  71.1251068  23.6870956  45.8640718  71.6833210  24.2995906  45.3850365
  70.3081274  23.6675692  45.3656769  35.1933098  67.0161343   8.6619139
  35.5199194  67.6246262   9.3247080  34.2406869  67.0934820   8.7144327
  15.1450241  50.5186653  18.4072948  15.1499844  50.6327629  19.3576574
  15.9143567  49.9784660  18.2268989  73.7656593  29.3823361  60.4640961
  73.6147070  28.5643077  60.9376717  74.6701527  29.3181849  60.1574850
  62.9603624  28.6642170  47.1300220  62.9543209  29.0372896  46.2485409
  62.1450615  28.9720154  47.5259686  46.5894699  65.5540752  54.3490791
  46.8852425  66.4321804  54.1088963  46.6745281  65.0440121  53.5435772
  75.0104618  10.8824921  36.7188263  74.5995188  10.4099417  35.9949112
  74.8799849  11.8066418  36.5063334  79.1591358  36.0617948  38.9015603
  79.5345545  36.8717551  38.5562253  78.3804750  35.9111524  38.3656240
  81.5402412  12.5930858  58.9372635  81.6514301  13.4406531  59.3679571
  80.5933380  12.4998832  58.8328171   4.5945308  12.4093354  38.2228732
   5.4757559  12.0367372  38.2519412   4.6638736  13.1407750  37.6093435
  48.1000185   7.9022384  62.6024294  47.3872709   8.3546978  63.0535412
  48.2654905   7.1246612  63.1355572  31.9419479  72.2970867  43.8637972
  31.5786386  71.4531374  43.5954857  31.4825845  72.5080729  44.6766329
   3.3694899  19.4872344  31.2986279   3.7828675  19.1930282  32.1102905
   2.4304077  19.4042027  31.4643455   1.8109967  29.3156004  33.9302564
   1.4964421  30.1725101  33.6421704   2.7030301  29.2602873  33.5875487
  27.4505258  59.5676851   3.9963350  26.8091846  59.0840769   3.4757227
  28.2497263  59.5486116   3.4698889  73.7692451   7.3316830  31.3622737
  73.3712864   7.5145352  32.2134066  73.6911869   8.1545973  30.8796263
  69.0226936   8.0928564  37.1910214  69.9733591   7.9972208  37.1334028
  68.8724422   9.0359259  37.1256256  72.3808622  33.6122251  35.6392932
  72.1200418  33.6819625  34.7209573  73.0933094  34.2443419  35.7345986
   2.0716101  29.2181444  14.0323162   1.8701170  28.3085465  13.8126266
   1.8388498  29.2983437  14.9573147  18.6010039  69.2329645   0.8649603
  18.6466837  68.5246897   0.2227076  18.0891371  69.9162006   0.4320456
   7.5892359  55.2684498  39.8919749   7.2355366  55.0206184  40.7462025
   8.4107876  55.7163239  40.0937033   6.6052181  27.7412081  34.5544338
   6.0628945  27.0741653  34.9753499   7.2160256  27.2446561  34.0098405
  11.5703607  26.8136978  20.5250645  12.0905983  26.8386292  19.7219682
  11.0489464  26.0146904  20.4479623  50.9119701  74.8440933  37.8010750
  50.9458780  74.8069239  36.8452001  50.4247618  75.6454849  37.9924726
  75.3571463  15.5246937  57.9713631  75.6348658  15.5018485  58.8871050
  74.4179392  15.3424060  58.0012989  80.3123569  15.1413345  34.6014905
  79.7863054  15.9380972  34.6698403  79.8095179  14.5715308  34.0195012
  63.3186579  72.4972343  39.3533015  63.7146282  72.3278093  40.2081299
  62.5690699  73.0611086  39.5440841   7.3090178   1.3860807  51.6153336
   7.7412695   0.5450008  51.7635727   6.4836866   1.3191351  52.0955181
  80.1716328  10.9620523  41.9910955  80.0066376  11.8784714  42.2128630
  79.7185612  10.8319116  41.1580133  43.3513308   3.7782201  49.1895056
  42.9754305   2.9190496  48.9977837  42.5960302   4.3639350  49.2413998
  66.4523745  15.3502893  34.4453931  67.0587397  16.0133803  34.1154432
  66.9336462  14.5264149  34.3689585  71.4669561  43.4480381  47.9131460
  72.3789644  43.7251377  48.0008221  71.1840487  43.8165951  47.0762682
   4.0062797  36.5635324  33.2521820   4.8638761  36.2211323  33.5042191
   3.4847891  36.5167785  34.0534902  78.9639568  17.7260089  34.3780541
  78.0800247  17.5870311  34.0380740  78.8532639  18.3711553  35.0764561
  73.5678387  41.8700314  57.4216175  74.3267965  41.3454008  57.6765251
  73.5091019  41.7608833  56.4724779  17.7378774  41.4949369  53.4759521
  17.4227118  42.1860552  52.8934908  16.9774544  41.2672806  54.0108919
  38.5964370  76.0685062   4.9513796  38.4658551  75.4922199   5.7044256
  38.4894967  76.9517994   5.3043485   7.5627398  25.6500030  21.3750744
   7.9365045  26.4910007  21.6382408   6.6232079  25.8178306  21.3019681
  80.1924229  35.3582788  51.6101599  80.1048756  35.9404159  50.8553839
  79.3330860  34.9452949  51.6950655  80.2698708  30.6699157  24.8607039
  80.8406544  31.0039473  24.1687012  79.8374844  31.4486289  25.2112484
   4.0610290  39.3933892  37.9203725   4.8786080  39.4955182  37.4331713
   3.4069225  39.8463845  37.3882341  78.8418722  36.8734169  60.4773951
  79.3665981  36.1389065  60.7958078  78.3819914  36.5257645  59.7132730
  22.4610639  39.2460394  18.9918375  23.3871651  39.2241836  19.2328608
  21.9950509  39.1853023  19.8257291   7.8500539   3.3898446  35.5793095
   8.1734806   2.6270169  36.0586023   8.2711357   3.3301234  34.7217798
   3.9886245  51.4730167  59.4609356   4.7870368  51.8681288  59.1107082
   3.9062127  51.8396473  60.3412867  78.3422852  40.3047419  35.9274507
  78.0031824  41.1892748  36.0646939  77.5912380  39.7329736  36.0863352
  71.9515514   1.2926407  45.4148769  72.6495457   1.3349028  46.0685205
  72.2986460   0.7204979  44.7304726  65.3030777  33.6155152  37.0439458
  65.6004715  32.7138805  37.1657872  64.3646574  33.5854292  37.2301960
  53.5770321  39.8058939  60.2929592  54.0361786  40.6428003  60.2222776
  52.7678585  40.0152874  60.7594681   7.5859797  71.3795233   7.6570880
   7.2717357  71.8507433   6.8854421   8.2680750  71.9438887   8.0210555
   4.7688964   5.8020771  32.8956532   5.2786613   5.0221914  33.1150842
   4.7535506   6.3136101  33.7045598  75.5354261   6.6268158  24.7893834
  75.6784344   5.7200676  24.5181131  75.0023365   6.5586114  25.5814672
  81.0831261  27.5397253  35.9215927  80.5078125  27.1594596  35.2577853
  81.9289207  27.6294994  35.4824948  79.6993113  14.9239421  28.1775713
  79.9901915  15.4828358  28.8981652  79.8346043  14.0317404  28.4967923
  10.8835196  22.1361828  54.6481991  10.4268622  22.5227070  53.9010096
  10.1963413  21.9862866  55.2974701   8.0819309  39.5576596  50.4676485
   7.5955182  40.1480627  49.8922777   8.8831651  39.3577433  49.9836159
  71.7506218  12.9495704  30.2858019  72.4985361  13.1627703  29.7277737
  71.4960527  12.0665348  30.0180793  17.8040576  19.4141710  18.0602980
  17.1666312  18.7746322  18.3779597  18.5830104  19.2620516  18.5953915
  71.4854908  27.8916788  32.8696561  71.1133099  27.4753785  33.6470914
  71.6103315  27.1731019  32.2497439  11.2355638  45.1431751  61.3965940
  10.5554295  44.9238825  62.0334291  11.1681151  46.0921764  61.2913418
  77.2820139  38.6177087  21.1809444  76.9417524  37.9490781  21.7754078
  76.8975210  38.4010792  20.3315496  65.3611755  25.5673432  40.7559204
  65.6828928  25.0979042  39.9862766  65.8350992  25.1767588  41.4901400
  69.1825104  27.2068524  63.3659458  69.1000986  26.4102411  62.8416824
  68.3074665  27.5945711  63.3516645  59.4386339  77.5075102  45.2071810
  58.5579395  77.1757889  45.3820086  59.9453068  76.7299557  44.9728203
  52.3666620   6.1175096  10.4039836  52.3460913   6.7588204  11.1142862
  51.9335651   5.3446722  10.7664502  69.4379520  35.3928494  20.6969762
  69.2916536  36.2111855  20.2224731  68.7307310  35.3597856  21.3411617
  67.8614235  55.9414291  59.2166662  67.2799778  56.6783667  59.0293741
  67.2760105  55.2426195  59.5085382  63.0994415  13.3713114  38.0592680
  62.2212553  13.1466699  37.7517605  63.5358381  13.7383103  37.2904372
  68.3522367  48.7301350  40.3294897  67.9449606  48.6684275  41.1935234
  69.2800474  48.8786411  40.5120993  31.6563508  76.9986075  45.9734297
  30.7462499  77.1716971  46.2142277  31.7407796  77.3506942  45.0873470
  81.3701248  24.6800113  20.7182860  82.2049713  24.9775696  21.0798287
  80.8113861  24.5468330  21.4839911   5.4653412   3.2304308  33.8454056
   6.0885346   3.2173502  34.5718288   4.8639208   2.5097257  34.0327787
  51.6428232  36.4424872  61.4319420  51.8371296  35.6386089  61.9138718
  51.2687397  36.1409473  60.6040716  24.7266150  36.0783577   1.7541717
  24.7322559  36.2323999   2.6988786  25.5176258  36.5133286   1.4358425
   5.9825373   5.9257162  43.3450174   6.2111270   5.4505634  42.5461388
   6.0409832   6.8490565  43.0995417   4.1444659  18.4031832   0.9426011
   4.0131935  19.2298627   0.4782730   4.2022544  18.6530185   1.8648130
   3.0049101  23.0733562  39.3498254   2.5276196  23.1003022  40.1791048
   2.5085980  23.6500025  38.7689781  24.9589109  15.4536688  40.6168270
  25.3118515  14.6029758  40.3560829  24.4946218  15.7682931  39.8411465
   1.1621016  23.5081100  41.0391283   0.8760136  24.3957734  40.8236313
   1.2324139  23.5042429  41.9937325   8.0291879   8.4483355  59.2952204
   8.3691657   9.3070990  59.0438795   7.1081227   8.6065823  59.5021725
  71.9786644  37.7647996  49.4567871  71.0436773  37.8039074  49.6580267
  72.4109459  37.8918004  50.3013182  72.9539537  18.1868052  38.7857461
  72.1615648  18.1181622  39.3183208  73.4074688  18.9565849  39.1292500
   4.5673469  32.6531243  53.9482880   4.4354886  33.2283354  53.1946421
   5.2205986  32.0184779  53.6538076   8.1587106  29.9542999  58.4715176
   8.7689894  29.6459579  57.8016520   7.4984688  30.4479122  57.9850388
  76.4343309  31.3547421  42.9252481  75.9798002  31.0276484  43.7015533
  76.6528988  32.2615767  43.1399918  63.9108515   5.5317819  34.2317271
  64.5349836   5.0767732  34.7971129  64.3533945   5.5905527  33.3850074
  38.9364576  57.7465820   0.7848690  38.3747816  57.7072001   0.0107875
  39.7103119  58.2296228   0.4949533  77.3162127  11.9975460  30.3143859
  77.2962332  11.0713398  30.0736022  78.1434536  12.3201704  29.9568653
  80.7435036   7.0487159  39.5149827  80.2524376   7.3983496  40.2585125
  81.3284016   6.3960296  39.8998570  72.4357653  30.6854320  29.8405290
  71.7423820  30.0992823  30.1436472  73.2260323  30.3675103  30.2771497
  10.6757092   3.7895295  58.4110832  10.9334147   3.3668694  57.5918293
  10.3834152   4.6624133  58.1486559  78.4925127   5.8822608  24.5470953
  77.7342415   6.4207995  24.3207502  78.2240534   4.9886984  24.3333030
  52.1376896  73.1890154  25.3631186  52.5507593  73.3284235  26.2152743
  51.4235067  72.5768566  25.5404186  11.4041662  21.6243029  35.8475995
  10.4821205  21.3939190  35.7336473  11.8621230  20.7837820  35.8532739
   2.1566904  28.7786055  44.0811682   1.4192696  29.3756080  43.9545631
   2.6989222  28.8990331  43.3016109   5.4158974  24.5824742  47.7977037
   4.9747285  23.8289046  48.1897926   6.0111392  24.8931789  48.4798908
  78.0510759  40.4271936  28.5941720  78.1593847  41.3721943  28.4870577
  78.8500118  40.0511408  28.2246900  76.6013861  30.2132010  54.4382954
  76.4925098  29.2712116  54.3077803  75.7124519  30.5654478  54.3940830
   9.3973047   7.3534232  24.9192595   9.6722072   8.1304663  25.4059458
   8.4449124   7.4307543  24.8626804   6.4747900  27.7573967  39.6261644
   6.8141580  26.8913007  39.4004607   6.1629671  28.1164050  38.7954354
  80.0735855  44.5882034  54.5175123  79.7329426  44.9647617  55.3289270
  79.9059582  43.6494350  54.6002531  74.8956966   2.8860134  16.7609656
  74.4817591   3.3734423  17.4732149  74.9268579   3.5063589  16.0326576
  65.9339571   5.3311944  25.7053709  65.6491995   5.2441245  26.6150761
  65.5869150   6.1783266  25.4258013  18.2436323  58.4890938  12.4489582
  18.0365849  59.2656088  11.9289720  18.8463175  58.8052702  13.1220376
  42.4046993  74.2746353  37.8600669  42.6603556  75.1848269  37.7102971
  43.1267118  73.7604952  37.4987006   9.1993374  29.0157652  29.8629904
   9.6899956  28.3952546  30.4019260   8.2808465  28.8084221  30.0350809
  10.7232141  26.9889855  31.0700893  10.8602941  27.0971608  32.0112252
  10.7642436  26.0430932  30.9292364  26.8516254   5.5552197  56.9304371
  26.1618543   4.9441350  57.1893263  26.4966917   6.0065562  56.1645699
  62.9958725  44.2651701  48.9825058  63.7468147  44.1563368  48.3990097
  62.2474384  44.3632936  48.3939028  65.0467157  22.1887016  61.7330837
  64.1110706  22.3189139  61.5786505  65.4222107  22.0886445  60.8583117
  77.1466684  35.8716512  55.1049948  77.2855139  35.4807711  54.2423439
  77.4399900  35.2010512  55.7218313   4.0687209  46.0207033  28.2308459
   4.4467998  45.5469131  27.4900270   4.2155856  46.9438696  28.0248570
   8.4001440  26.4094090  33.1182170   8.0810368  26.2553930  32.2290158
   9.3244648  26.6313267  33.0058980   2.4259917  57.6054430   1.0282331
   1.8381740  58.0207109   0.3971571   2.4358779  56.6824198   0.7749347
  10.1963723  23.6461473  39.8334789  10.2473235  24.5348644  40.1853514
  11.0886562  23.4501576  39.5477343  57.1065426   9.8141152   2.0798032
  56.6040754  10.0512683   1.3003698  56.9399929  10.5258107   2.6978508
  77.4393511  33.9569306  50.3297091  78.0774212  33.7869382  49.6367455
  76.8536234  33.2002044  50.3068542  14.9280190  39.2863774  35.6952119
  14.5597613  38.5614753  35.1901031  14.6275365  40.0727463  35.2396154
  48.3593369  57.0679522  21.1574101  48.2270908  56.8631649  22.0830488
  48.8608885  56.3269377  20.8174491  26.5152311  66.2032938   5.5010289
  26.6710734  66.1245823   6.4421719  26.6873813  67.1244574   5.3059649
  13.3637381  26.6618323  49.7579670  12.4106908  26.5779614  49.7279978
  13.5354185  27.5530982  49.4539881  77.5430584  32.1952796  32.8186512
  78.3922148  32.5584149  32.5670600  77.4419308  31.4189029  32.2679758
  20.2961564  52.5957870  21.4786386  20.8215833  52.4913168  22.2718883
  19.7567558  51.8058491  21.4428759  66.0490513  49.7831869  51.5749502
  66.3233805  49.0059614  52.0616722  66.1348915  50.5011988  52.2021103
  77.3174715  60.0764894  40.5350828  76.8035650  60.4732323  41.2384510
  76.9524145  60.4488373  39.7323871  68.2142878  28.8227439  38.0674386
  68.4720135  29.7418213  37.9959893  69.0312910  28.3583236  38.2492256
   9.6722120  21.2823200  22.7211738   9.7185540  20.9994960  23.6344624
   9.0296441  21.9917822  22.7224565  70.3497505  73.3733940  39.3374443
  70.3215361  74.0793753  38.6916685  70.0994778  72.5902605  38.8472462
  72.5076389  41.4783192  42.9689169  73.3991623  41.7582560  43.1764126
  72.6185226  40.8000708  42.3026466  11.0699570  60.3221130  48.2919264
  11.0869181  59.7056341  47.5598717  11.9796610  60.6035709  48.3891582
  77.5966597  56.0725546  62.7836418  78.5302591  56.1086845  62.5755167
  77.1627283  56.3989401  61.9953442   1.3453846  56.3756657  46.5390921
   1.0435067  57.0927668  47.0966387   0.7006785  55.6808329  46.6725016
  67.6024771   8.7116873  46.4504766  67.1193933   7.9894120  46.8519545
  67.8511620   9.2715800  47.1859407   2.8322631  36.5993905  23.1164670
   3.2819784  36.1627769  23.8399005   3.3711374  37.3677993  22.9283309
  11.8540716  28.1209278  41.2049484  11.7167485  28.5514045  42.0487833
  11.1716115  27.4510026  41.1639547  39.9877572  18.5334635  11.8934870
  40.6906796  18.5107696  11.2441635  40.3511333  19.0363967  12.6223540
  72.8326035  64.7984934  52.2771263  72.1473455  65.2534723  51.7875862
  73.1114817  64.0902090  51.6967869  81.5235329  50.7902575  50.3682661
  81.3464069  50.2448034  51.1346483  81.6034889  51.6773129  50.7189369
  16.6058969  56.8983078  39.6210051  17.5153625  57.1751213  39.7327065
  16.2790811  57.4351597  38.8990521  77.7812338  13.1702697  44.9177217
  78.0950642  12.6308632  45.6435156  78.5767603  13.4430802  44.4606161
  18.4853327  39.7573900  27.0270014  18.4397697  39.5296741  27.9556036
  18.8600588  38.9823890  26.6084504   2.2211453  57.6504183  50.9900904
   2.3035043  56.9361353  50.3582287   2.9671669  57.5365257  51.5789127
  66.6443110  40.0259924  36.7345738  67.3778439  40.0146198  37.3494148
  66.0083437  40.6212044  37.1314406   3.9956266   3.9383239  47.2702503
   4.7902545   4.4006300  47.5368452   4.2455891   3.4731466  46.4719009
  76.5723228  41.8749142  37.8413749  76.3655615  42.6242161  38.3999681
  75.7769537  41.7319012  37.3283792  74.1182899   5.1610625  29.8191786
  74.1342878   6.0248268  30.2313519  73.2360363   4.8309135  29.9890637
  30.0719976  74.4070959  27.2191525  30.1407051  75.1012087  27.8746819
  30.6471133  74.6909428  26.5085840  58.0270624  57.1380568  19.7708857
  58.4769392  57.7780151  19.2192531  58.7120152  56.5216780  20.0300169
  77.0980978  25.6082344  28.0907655  77.6022005  24.7957706  28.1356597
  77.0215797  25.7911921  27.1543336  70.9210110   5.3196943  14.8219001
  71.7348385   5.5086577  15.2890313  70.5025434   6.1738658  14.7146332
  47.9439735  72.2501135  19.6363211  47.7642441  72.2183561  18.6966825
  47.1166658  72.5284815  20.0291443  49.6243525  13.2804632  23.9548230
  50.1712799  13.8114679  23.3759093  49.8076963  12.3774159  23.6957383
  62.3243332  27.3996949  26.5285015  63.1471395  27.0095277  26.8234372
  61.8487453  26.6760325  26.1206245  14.7604322   2.6662058   7.8706318
  14.0054822   3.0158406   7.3973048  14.8502767   1.7691320   7.5490445
  65.5463457  73.0846453  36.4850712  64.8443127  72.9832077  35.8423519
  65.1372814  73.5490370  37.2152996  17.6295233  41.0447979  34.8173928
  17.3670101  41.6367722  35.5222917  18.2116318  41.5697813  34.2680550
  75.6897020  16.8978822   6.0453880  74.8983240  17.4260497   5.9405613
  75.3986979  16.1232913   6.5265924   2.2256728  39.6501541  21.5723991
   1.9071998  39.8191833  22.4590993   3.1747633  39.5725274  21.6695237
  23.6458874  70.2430868  24.6239805  23.3317041  69.4044876  24.2859364
  24.5991588  70.1567125  24.6304655  64.7032070  17.5310624  21.4130497
  65.3803730  17.7569699  20.7753658  64.6593714  16.5752113  21.3874006
  40.6020880  68.3543015  24.0024066  40.7222271  67.8996754  24.8361421
  40.4744911  67.6530981  23.3634543   6.1097479   0.9085467  19.6469593
   5.1797754   1.1313283  19.6888125   6.3924819   0.8879440  20.5612183
  -0.1681927   9.2484611  24.1505218  -0.2306584   8.8112444  24.9997401
   0.4461070   9.9679446  24.2961645  71.8182087   0.0425021  27.9225874
  71.7843103   0.5893042  27.1376729  71.6914511   0.6552127  28.6469841
  43.3302736  73.6360073  18.1840348  43.2017231  72.7564764  18.5391879
  42.6847363  74.1754198  18.6407006  68.0518341  24.5070481  19.6389389
  67.9524326  24.5571327  20.5896449  67.1770000  24.2884183  19.3178403
  57.3942900  75.5380726  29.4396043  57.9866695  76.1259460  29.9083519
  57.8857708  75.2726460  28.6622834  24.9130559  25.8692646  11.0354006
  24.2530537  26.5475464  10.8919919  25.7400084  26.2839651  10.7896292
  46.5316248  56.5745401  31.7122102  46.8403816  57.4775362  31.7863727
  46.8319559  56.1518812  32.5168180   9.7388160   3.2996884  16.9431484
  10.2081013   3.8549098  16.3204670   8.8721740   3.1827644  16.5539289
  24.8513198  47.6609898  66.2309217  24.5428061  47.6777935  67.1368837
  25.6674194  47.1619415  66.2650347  50.2845907  71.4657545  26.1423635
  49.8998594  70.8614397  26.7772031  49.6181965  71.5534353  25.4608488
  57.2328949  38.8066840  48.5647106  57.3450184  38.6253071  49.4978571
  56.8331337  39.6759367  48.5360193  76.3516665  14.2118907  37.5364995
  76.8471289  13.3961296  37.6091814  76.0802650  14.2463636  36.6192293
   5.5334872   0.3085675  40.8914518   4.8453456  -0.3408401  41.0362387
   5.1848823   0.8780917  40.2056360  73.4777784   0.6415003   9.7203082
  73.8824081   0.0388557   9.0963483  73.6186028   1.5090477   9.3411481
  69.1019344   9.9365211  28.1753969  69.2957258   9.0543061  27.8585792
  69.9608946  10.3386021  28.3048081  52.4731016  59.9915218  31.9256091
  53.0469894  60.4697371  31.3271117  53.0093098  59.2643976  32.2418380
  45.9657192  61.2526274  36.0896635  46.5875626  60.5421114  36.2468529
  46.1526871  61.8911695  36.7778063  13.7581062  18.1225204  10.2905321
  13.9894915  17.9598308  11.2049854  14.3862510  17.6032591   9.7885031
  63.4273720  69.4461632  18.3517087  62.8161621  69.4245434  17.6153743
  63.1405926  70.1916313  18.8792193  53.1656742   3.4547904  63.6625481
  52.7659082   3.0661258  62.8845024  53.9062929   2.8823543  63.8626289
  65.0746012  10.1483119  14.0991127  65.0321579   9.3578374  13.5609865
  64.1643858  10.3257656  14.3362784   8.7126458   6.1977857  50.2932692
   8.6039203   5.3613621  49.8407125   9.4626909   6.0612178  50.8720732
  13.5115671  23.7660265  54.5911837  13.9485645  22.9667830  54.2971182
  12.7535439  23.8511729  54.0129232   3.8014439  21.9435000  29.8522139
   4.1097748  21.4697742  29.0797210   3.5514230  21.2567472  30.4703498
  72.2615147  21.4616466  50.8163071  72.3385000  21.7442417  51.7275953
  71.3440704  21.2055945  50.7216358   1.5572385   4.2087954  32.1381640
   0.6919735   4.0771869  32.5257564   2.0515448   3.4270644  32.3847198
  25.5788493  10.4651427  39.9934840  26.1440945  10.2625275  40.7389212
  26.1853194  10.6582308  39.2785430  51.7423534  70.3577042   5.0670904
  51.2111616  71.0783195   5.4058862  52.4020576  70.2075100   5.7441926
  79.5094967  26.1892080  33.8415694  78.7377834  25.7241440  33.5184455
  80.0803757  26.2660217  33.0770922  80.5533218  36.8899941  49.3386936
  79.7116089  36.8450546  48.8851166  81.0852337  36.2105417  48.9243889
  78.5820818  65.8038425  23.5639453  79.1540241  66.0234880  22.8285050
  77.8733873  66.4454842  23.5161686  29.5651603  73.9576626   0.9572060
  29.1919708  73.1842375   0.5343890  29.5325828  73.7583065   1.8928489
  37.7035856   1.4366855  29.8006272  38.6585069   1.4428078  29.7348905
  37.4269938   2.2313491  29.3442965  15.3828537  62.5896120   0.4327018
  15.2860868  62.6907825  -0.5142051  14.8671222  61.8115139   0.6443859
  17.6133573  42.0138788  13.5834038  17.2652984  42.7011490  13.0152953
  18.5520518  42.1950388  13.6310089   2.1735339  54.9334621  49.6617699
   2.1727715  54.9021626  48.7050819   1.2920114  54.6560812  49.9111891
  46.3713503  42.0679808   4.0648738  45.4307556  42.0591164   3.8875800
  46.6501617  42.9542208   3.8345051  72.0780849  47.8129911  54.8993444
  72.9762077  47.8661728  54.5725727  72.1308279  48.1367493  55.7985830
  70.7719803  10.6240535  13.8730550  71.1958933  11.1912286  14.5171356
  71.2962723  10.7294869  13.0791843  38.9531088  63.7481785   5.1649272
  38.4151983  64.5317459   5.0513124  38.8010120  63.4826899   6.0719085
  45.1161623   4.8413110  34.7074437  44.3427515   4.8781818  35.2702141
  45.1265717   5.6868857  34.2589712   0.4821962  44.9473538  66.7764481
   0.9986061  44.2162390  66.4372911   1.1154741  45.4906227  67.2455454
  54.5458698  24.1291022  16.6680551  55.0333881  24.9479198  16.5780699
  54.8999119  23.7254000  17.4604642  58.8883543  76.2401390  64.2309237
  58.8438034  75.5638361  64.9068356  58.9950371  75.7545948  63.4129381
   3.9560014  49.9706316  66.0809088   3.6001846  49.2326975  65.5858517
   3.4524879  50.7266426  65.7789898  59.2833424   2.0090473   4.9381790
  59.1049957   1.4495969   4.1822425  58.4242535   2.3419164   5.1977921
  52.0944262  20.7962060  14.9857688  51.3634872  20.4838061  14.4525027
  52.2338343  20.1028442  15.6307876  70.5141211  45.3142023  65.5162430
  71.0529184  45.0579214  64.7677469  71.0296535  45.9850359  65.9639502
  71.4641237  32.8099990  54.9725914  70.8112669  32.2218823  55.3522348
  71.8055630  33.3025789  55.7189274  68.6478996  32.4196696  57.0954466
  68.1015825  32.5606799  56.3222170  68.5411358  31.4902306  57.2978830
  46.8472767  75.4980993   8.3019888  46.4241695  74.9484539   7.6423633
  47.6616716  75.0397396   8.5091060   8.6521381  43.4649420  62.7223015
   8.9989913  44.3291998  62.9436302   8.9502656  42.8978920  63.4334993
  14.5093822  55.5573034  64.6077108  14.8737943  56.2854576  64.1044950
  15.1227272  54.8365211  64.4644928   3.0223396  21.9588161  65.2937317
   3.0046123  22.8881121  65.5224848   2.3824635  21.5555024  65.8803511
  50.4506397  11.2157118  13.2927239  50.1940870  12.1355307  13.3586240
  50.5681562  10.9342408  14.2000246  72.7427816   8.8967377  23.7614250
  72.0966387   8.4182715  23.2420015  72.5505257   8.6526537  24.6667957
  60.6691694  37.5818658  21.8123674  59.8500299  37.1574831  22.0675826
  61.3429451  36.9233847  21.9816637  24.9010324  62.4983311  60.5077457
  23.9843059  62.2232103  60.4954576  25.0166440  62.9081202  61.3650322
   6.1221850  22.5805187   8.2260966   7.0659149  22.6122093   8.3829468
   5.8496231  23.4980655   8.2190001  79.9457455   7.8829569  11.3755047
  80.1211643   7.1659076  10.7661593  80.2194118   8.6699754  10.9044003
   9.3497133  31.9838977  60.6644821   9.0422428  31.1240053  60.3776360
   8.7203836  32.6004028  60.2901888  21.8138623  23.4328747   8.6817044
  22.2963905  23.6270404   9.4852567  20.9163332  23.2736897   8.9738220
  59.5875502  32.1842098   6.3794667  60.4526472  32.3333812   6.7610300
  59.6275425  32.6081657   5.5222064  75.8562279  12.4257863   5.6681639
  75.2172613  12.4584234   6.3801277  76.6883373  12.6541996   6.0824728
  62.0560932  18.7329853  11.9630957  62.2615051  19.6191478  11.6651809
  61.1051369  18.7313986  12.0722437  69.0812016   0.6383878   6.5914834
  68.2314396   0.6904579   7.0290017  69.4552565  -0.1896733   6.8925309
  27.2406363  44.2288303  64.6153259  27.2705102  43.3688879  64.1960001
  27.7020216  44.8074770  64.0082645  80.2561474   1.1341874   8.9837593
  79.8371553   0.5766007   8.3281898  81.1756611   0.8684990   8.9717621
  64.5861292  22.1290898  40.1054382  65.4445028  22.5149536  39.9306965
  64.3697119  22.4178600  40.9920073  52.9900074  76.1273766   0.3035369
  52.7655602  75.2025127   0.2011601  53.7475729  76.1266518   0.8886229
  62.6859999  22.5954366  28.7114692  62.1495342  21.8039155  28.6675286
  62.1040344  23.2958865  28.4166527  33.1454468  75.9422398  13.9373934
  32.1938825  75.8708525  13.8621664  33.4506536  75.0362015  13.9841008
  63.6188030  66.1964512   2.5444564  62.8325415  66.4098978   3.0469137
  64.2494059  66.8745279   2.7869144  59.7698975   7.7041495  24.8875284
  60.0320959   7.8813213  23.9841509  59.2584133   6.8968034  24.8345184
   1.4948981   4.4856519   7.6598591   2.0778346   4.1215613   6.9936347
   1.9231334   4.2802674   8.4909207  69.9059916  25.7355952  24.5429707
  70.0057507  25.4575396  25.4534459  69.9539375  26.6909623  24.5776796
   9.7749484  33.1044698  28.4143019   8.9827085  33.6340213  28.5046458
   9.5575005  32.4613452  27.7395105  58.9856339   7.7377236  10.4296267
  59.5960045   7.1322614  10.8504558  58.3714819   7.9791701  11.1229873
  25.4250932  54.5117903  60.6970692  25.3534436  54.0940619  61.5553236
  26.1890292  54.0999746  60.2932835  67.6923418  13.4702468  16.3904369
  66.7849970  13.5333085  16.6887355  67.6328039  13.4956050  15.4354274
  63.8835716  28.9804697   4.5098519  63.5184383  28.1676722   4.1601807
  63.4188747  29.1160321   5.3356314  78.6164618  31.5390110   4.1380692
  78.3252621  31.0027981   3.4005672  78.0996799  31.2260580   4.8805177
  76.7492104  36.5318751  45.3520441  76.2120342  36.5810251  46.1427784
  76.1176252  36.4387465  44.6388388  27.2607136  62.8915358  29.7497511
  26.6881180  63.2121086  29.0529037  28.1037140  62.7475309  29.3198133
  49.6738672  26.6845131  11.1622715  50.2724695  26.0015202  11.4646435
  49.3586969  26.3689947  10.3153086   1.8290477  30.5957794  29.1162181
   1.0100064  30.2388144  29.4596982   2.5076234  30.0195909  29.4680309
  57.1650505  10.5822182   7.2011101  56.6013288  10.4617941   7.9652774
  56.7146444  10.1177931   6.4956480  21.6412163  64.1142368  48.7043667
  21.6230440  64.7182894  49.4466782  21.0388398  63.4126616  48.9516783
  16.3718832  41.3856173  62.5796318  16.6837955  40.9860754  61.7676544
  15.5355120  40.9536695  62.7532387  50.1411343  72.7355957  16.6807127
  50.7106781  71.9740725  16.7899442  50.5363178  73.4112358  17.2316861
  62.5065422  19.3045306   4.3565908  63.1811142  19.9729729   4.2367050
  62.9354143  18.4847343   4.1111577  61.6014767  15.3286290   2.9757482
  61.1888409  15.1292241   3.8161048  61.4889860  14.5311356   2.4584652
  14.1218734  15.9366024  17.1538377  13.2230556  16.2608922  17.2103608
  14.0281367  14.9950337  17.0092845  12.9543042  19.4807577  16.4581764
  12.9024386  19.2685616  17.3901176  13.8787043  19.6792758  16.3088202
  54.1883278  14.6788549  28.3077073  53.8414860  15.4670954  28.7255716
  54.7105074  14.2562795  28.9896107   3.7027264  12.6241410  14.0511978
   3.7514910  11.7383993  14.4108033   3.2614392  12.5165999  13.2086229
  14.6738362  43.2882690  58.5968590  15.1416588  44.0891218  58.8335228
  13.7546253  43.5517359  58.5536242  58.6214113  13.8110304  15.4913831
  57.9116726  14.4455290  15.3918064  59.0005875  13.7364137  14.6156621
  18.0284655  38.2750344  51.1546278  17.2574389  38.3078504  51.7209101
  17.9082501  37.4821353  50.6320477   8.3678788  58.4274387  62.6127434
   8.2254481  58.6360168  63.5360193   7.9994464  59.1732025  62.1391153
  11.1833513  57.2503519  63.8012743  10.8281124  57.7830410  64.5128107
  10.5054748  57.2702217  63.1257629  42.6634598  64.7885895   8.2054192
  41.9412374  64.9381733   7.5952917  43.0015945  65.6636810   8.3954591
  81.9981041  17.5949919   1.1793666  82.3182210  16.6930389   1.1639603
  81.0891106  17.5215924   1.4701843  65.7290697  36.6894293  20.1417613
  65.0115490  36.3158107  19.6300948  66.1422348  35.9348440  20.5614376
  55.2036953  39.9696565  12.6409304  55.8529282  40.4182673  12.0991969
  55.2473688  40.4163551  13.4863806  48.0605221  76.0890770  42.0566750
  47.5584269  76.1403990  41.2433481  47.8439522  76.8963528  42.5231886
  59.9375391  77.0146561   6.7842680  59.2728424  76.8389320   7.4502474
  60.7706547  76.8813372   7.2363544  55.9658241  37.2543454  12.0216572
  56.8578243  37.1047974  11.7082834  56.0292339  38.0460238  12.5559366
  59.6182394   7.2299695  17.6149869  59.8963165   6.4498335  18.0948746
  59.9314070   7.9621601  18.1460750  80.1521587  55.7548189  61.9770575
  80.9271622  55.2486277  61.7333937  80.1555347  56.5013123  61.3779163
  79.2248678  39.5274782  18.0855608  79.4559431  39.0089941  17.3148417
  79.9225140  39.3449259  18.7150002  73.8799000  60.4074240  59.9079037
  73.0086374  60.0110340  59.9111652  74.4560575  59.7221947  60.2466202
   4.4653040  19.6091211  17.1334159   4.1097552  18.7624049  17.4033964
   5.4145658  19.4878280  17.1539652  40.0752401  72.7386808   6.8697560
  40.4863548  72.8950310   6.0195976  40.1189852  73.5843182   7.3160970
  51.6058969  14.2845798  22.4043417  52.1100140  14.8460317  21.8153858
  51.9348192  14.4971263  23.2777667  50.2520800  14.8477256   5.8462858
  51.0255098  14.3266845   6.0620397  50.3877258  15.1123357   4.9364433
  70.4007435  23.0037975  27.5580215  71.1415339  23.5820246  27.3760462
  70.2794456  22.5078893  26.7483330  54.5674181  11.4332247  16.5072274
  54.6100855  10.9184837  17.3131144  54.4449711  10.7840240  15.8145678
  80.0733852  66.9443655  21.5895033  81.0170555  66.8112421  21.5000534
  79.7314930  66.8395519  20.7016110  35.9397864   6.2167388  28.9811873
  35.6744933   6.2869155  28.0641675  36.8893647   6.3362825  28.9656305
  55.2395821  14.0871549  26.0828137  56.1342239  14.4206309  26.1509919
  54.7962856  14.4303107  26.8586755  14.1728818  51.8473864  52.6068401
  15.0825262  51.8567371  52.3090315  13.6655033  52.0977783  51.8347645
  18.5680985  54.3208742  65.9795904  18.1822681  54.7982979  66.7140484
  17.8204930  53.9236021  65.5329418  40.7857513  76.4327669  26.5099740
  40.4723835  76.8293190  25.6970930  41.7187786  76.2817812  26.3586688
  59.9314308  31.3417363  18.7121594  60.3338480  31.6458011  19.5256937
  59.0068674  31.2256265  18.9310873  22.0801854  48.6559391  62.8349733
  22.5695705  49.0821457  63.5385990  21.6454673  47.9163265  63.2595062
  29.8172712  75.6314135  21.3347316  30.0360823  75.9669542  20.4653835
  28.8766241  75.4586792  21.2950206  38.0476832  55.0457191  25.5670810
  37.4525046  54.3694019  25.2436686  37.6235700  55.8707571  25.3311419
   4.3008712  73.1324720  11.9476545   4.9092999  73.5654593  11.3488472
   3.5601854  72.8808784  11.3960063  71.7727089  40.9127426  52.7461958
  70.9630919  41.0715532  52.2608852  72.4616146  40.9542990  52.0829344
  74.3655443  17.6293254  42.0629311  74.0475178  18.5146236  42.2399569
  75.0649595  17.4937809  42.7022123  69.9105883   8.1836873   6.9102013
  70.2081823   7.2824937   6.7856258  70.5308247   8.5562736   7.5368714
  66.2497663  26.2103605  10.0335908  65.3854990  26.6045356   9.9157095
  66.7782640  26.9050193  10.4264927  72.2721720  22.6079082  19.0807152
  72.3233080  23.5607076  19.1568232  72.1672583  22.3009849  19.9812829
  68.2269669  15.8256435  19.3021905  68.4839821  16.4122832  18.5908353
  67.2710228  15.8017564  19.2593908  15.2319086  48.5800028  55.1248932
  15.2199078  49.4596148  55.5022097  15.4762530  48.0099487  55.8539820
  58.9506102  21.3960719  22.0695758  59.8024225  21.2008119  22.4601173
  58.9396191  20.8932853  21.2551332  15.2618420  73.0420542  44.6252060
  16.1813176  72.7801895  44.5780754  14.8430598  72.3540211  45.1423693
  80.0967407  12.5107348  19.4822061  79.3689632  12.5965762  20.0979972
  80.8172131  12.9869044  19.8950219  77.9328012  24.6171904   8.7553662
  77.8559685  25.1053047   7.9355657  78.4576988  23.8494968   8.5287368
   1.1201072   3.4354988  15.5643809   1.1957607   4.0810758  16.2670469
   1.9057740   3.5661787  15.0334549   5.8071893  52.2290373  55.1337576
   5.9828150  51.3663626  55.5094910   5.6787604  52.0619726  54.2000389
  42.2669888  26.2858701   2.1297212  42.1825027  27.0921516   1.6207948
  43.2091141  26.1194015   2.1600673  78.4545565   8.7436509  46.2561417
  78.3852196   8.1316727  45.5234003  77.7298594   9.3554318  46.1266422
  72.1913147  49.0329266  60.8230591  71.5672255  48.3485699  61.0647249
  71.6912651  49.8466015  60.8872366  39.1291881   6.5654892  50.1873732
  39.2126703   7.1201783  49.4117546  38.4863067   7.0154291  50.7355452
  64.4281530  19.7773838  23.1260872  64.6032810  20.4719567  22.4911618
  64.3697596  18.9803863  22.5991940  16.6438532  43.9773703  61.6793585
  16.1302853  44.4436932  62.3389244  16.8252611  43.1251144  62.0755720
  19.8498893  26.8416524  66.1488104  19.7889102  27.4487042  65.4112482
  19.1753030  27.1383834  66.7596436  38.8175154  66.5484095  19.4554293
  38.3077788  67.3369360  19.6415174  39.0926766  66.6505527  18.5443389
   8.8095158  12.4231231   8.0385536   8.1245464  13.0899072   7.9890800
   9.5473224  12.8681552   8.4554702  75.8538771   5.4198754   9.5729959
  75.8652735   5.3799218  10.5292940  76.3524485   6.2088054   9.3602788
  54.6275711  71.4569521  19.3374443  55.5329466  71.4596510  19.6481216
  54.2983246  72.3299026  19.5514178   9.0769517  57.6103020  56.2695122
   8.6076546  57.7125263  57.0974827   8.5367125  58.0733585  55.6292343
   8.7059593  11.2188673  60.8774233   8.1491506  10.5171669  61.2147808
   9.4974458  11.1755002  61.4139843   9.9230474  46.8445158  39.8732638
  10.1413596  47.7727938  39.7903585  10.7506800  46.4236832  40.1059771
  36.3970733  66.1199522  25.3642344  35.5159187  65.7559252  25.4495645
  36.4193535  66.4888287  24.4812465  61.3845158  71.2978601  44.9449396
  62.0533562  70.6244087  44.8210621  60.6548882  70.8373976  45.3594875
  47.7287626  56.3651562  15.2045619  47.6922798  57.2947836  14.9794066
  47.4602556  55.9141350  14.4041157  47.7583313   3.7081084  35.4115295
  46.8961477   3.2968497  35.3504372  47.5942278   4.5450664  35.8460450
  79.1452503  16.5144956  14.8857415  79.3587399  15.6456447  15.2259636
  78.5009241  16.8616116  15.5026579  17.3354399  48.2343054  66.4529753
  16.4520836  47.9964018  66.7346096  17.6010096  48.9274073  67.0573902
  77.8994560  26.2576342   2.8097343  77.4091911  25.5980110   3.3004144
  77.7303076  26.0477018   1.8912849  52.5392008  73.8634348  13.1572998
  52.9870939  74.5165443  12.6196480  52.2271156  74.3529463  13.9183605
  46.3930368  41.4453459  60.8729696  46.0511637  42.2606850  61.2398195
  46.5851831  41.6558743  59.9591923  12.0341051  66.5699053  62.1442890
  12.5853777  66.9199276  62.8441572  11.1415482  66.6463518  62.4815273
  78.2475281  12.1997595  21.3629627  78.5396099  11.5371466  21.9889522
  77.5334358  11.7787933  20.8843231  74.1049528  39.6683574  48.3990049
  73.3215857  39.1302562  48.5130835  74.0733051  40.2939320  49.1228056
   6.9993514   3.5166276  19.1807449   6.3348871   3.7185976  19.8394763
   6.6221631   2.7986234  18.6723840   0.4411672  19.6557522  29.2701387
  -0.4964385  19.8465431  29.2431879   0.4920030  18.7002587  29.2440796
  72.4625540  37.3055816  11.8876243  73.0075836  37.6735568  12.5831592
  71.8123198  36.7751718  12.3481536   2.5386110  10.8920157  21.0334754
   1.7198506  10.4037213  20.9472704   2.5848830  11.4241672  20.2391791
  19.4840157  16.1877811  11.3172650  19.2485130  15.4243028  10.7901299
  19.7148550  16.8597281  10.6758368  64.2175293  38.1503057  15.0700927
  63.8164282  38.2033825  15.9375799  64.6272707  37.2855139  15.0481761
   7.8605157  37.5404239  15.1302445   6.9108820  37.6602745  15.1382387
   8.1968045  38.2561326  15.6695998  14.2904472  26.3401675  40.7625437
  14.2185283  27.2451234  41.0660505  13.5223186  26.2124920  40.2058458
  44.4895840  66.1613321  56.1591482  45.0773048  65.8582163  55.4670906
  43.7568188  66.5629292  55.6922340   0.5451506   6.6462910  12.9078972
   0.9069932   7.4664325  13.2435620   0.6378716   6.7147535  11.9576621
  73.8161945  34.1226029  16.8594551  74.4202280  34.7992778  17.1652031
  72.9474020  34.5079994  16.9730544  71.5202570  22.2866845   4.3299752
  72.0775414  22.9761147   4.6910158  71.9112349  22.0830536   3.4803268
  20.9149814  28.7014890   3.5044891  20.2322793  28.1507635   3.1212783
  20.6797218  28.7653279   4.4301286  67.5727320  15.0316656  12.8090000
  67.0959473  14.2677975  13.1336761  66.9967365  15.7721400  12.9991603
   6.6384721  20.8369994  11.9419849   6.5514976  20.3801274  12.7786064
   6.7620218  20.1384592  11.2993288  59.4477320  17.0162833  21.6683984
  60.2464342  17.5347793  21.5711164  59.5048761  16.3564312  20.9773397
  11.6275704  17.8300607  14.5986187  10.7090187  17.9658222  14.8311341
  12.1169102  18.3186603  15.2604711   6.7264199  42.1393013  24.1333842
   6.9616365  41.7676544  23.2832170   6.8162298  43.0848455  24.0145540
  79.9963570  42.2597218  18.5928643  80.3521824  41.3869476  18.7598455
  80.7607937  42.8357315  18.6015940  81.6368866  18.1415606  20.7747602
  82.5443172  18.0837655  21.0738683  81.1316013  17.6968062  21.4552808
  10.8204877  21.5692043   9.8788816  10.7666671  20.7387829  10.3518867
  11.7486644  21.6630840   9.6646202  81.4271736  12.8647435  10.0993586
  81.0593414  13.6183536  10.5608797  80.6636238  12.3725438   9.7977591
  71.5533876  27.0459437   5.1102144  71.8433857  27.2294474   6.0037792
  72.3627901  26.8957973   4.6217936  74.9313641  27.3681426  29.3813396
  74.7413158  27.2075295  30.3056312  75.7606697  26.9163251  29.2253065
   5.2856249  37.9505444  15.6218398   4.9468851  38.4592986  14.8851883
   4.8806828  37.0887446  15.5240822  35.8336255   1.5187111  66.7866406
  35.7993123   0.6755772  66.3347776  36.6811511   1.8886127  66.5394494
   0.6501740  13.1120253  29.6500874   1.3722259  12.5320196  29.8918867
   0.6159670  13.7586117  30.3550601  34.3243647  54.8411417  61.4846897
  34.7378492  55.1082277  60.6637573  33.6984348  55.5396175  61.6759396
   3.3221543  21.8650079   2.5628504   2.7022418  21.1675406   2.3495920
   2.7735874  22.6340866   2.7171981  26.2752008  53.5563612  63.4405518
  26.8993354  53.8668346  64.0965176  26.5561676  52.6620245  63.2470179
  76.1880636  29.8376203  19.9803555  75.6489277  30.5529141  19.6428418
  75.5573606  29.1946578  20.3044653  34.8257184  21.6149306   1.5684623
  35.7071304  21.4534307   1.9050047  34.5790577  22.4620080   1.9397441
   6.6924381  44.7188711  23.7230849   5.9634835  44.9795771  23.1601524
   6.5477437  45.1974249  24.5393443   0.7987066  41.6025305  10.1923490
   1.7176786  41.3590050  10.0809073   0.3320482  41.0822630   9.5382959
  80.9193802  35.8876967  10.3456402  80.2851295  35.9812498  11.0564220
  80.3948212  35.9471965   9.5471853  68.7051773  17.5726449  21.2061930
  68.5924911  16.9755352  20.4666042  68.4873962  17.0455301  21.9749284
  62.5787783  15.3880894  24.3282509  61.6924047  15.7307684  24.2136002
  62.4507856  14.4827461  24.6114540  53.7467337  23.6316705  21.5588355
  53.9827156  24.3966889  22.0835161  52.8257370  23.7683773  21.3367891
   5.4523849  34.9328947  14.7369683   4.6586055  35.2209783  15.1876950
   6.1639887  35.1633167  15.3342617  61.1295271  29.5580721  25.1669264
  61.6444302  29.2574644  24.4181013  61.3854980  28.9762974  25.8826447
  75.5103207  25.6474400  23.0924869  76.3477278  25.7236409  22.6351285
  74.8518896  25.7695341  22.4085331  29.9127197  10.5923545  20.9695148
  29.1182041  10.3714156  20.4835486  29.7515965  10.2638793  21.8540359
  68.0133438  36.0033512   2.6265785  67.8705835  35.9844494   3.5728836
  68.6599159  35.3155541   2.4681145   2.3910779  46.1771917  24.7976184
   3.0991578  45.6433153  25.1579428   1.5991341  45.6636238  24.9566936
  64.7000599  34.6269202   0.8984078  64.1666031  33.8323927   0.8788771
  64.3876123  35.1063919   1.6656834  16.4264929   3.2958880  24.1901040
  17.2810459   3.1673872  23.7784505  15.8034825   3.2623708  23.4641790
  10.0515926  20.0738192  25.2309990   9.9450117  20.6239963  26.0070014
  10.9426236  19.7311640  25.3008771  70.2878761   6.1627483  20.1418281
  69.8822880   6.2508494  19.2792916  69.7029781   5.5773145  20.6228638
  65.4782057  28.8498473  38.3542037  65.3130198  29.7222066  37.9965210
  66.4321947  28.7723374  38.3655572   8.0671501  30.2643538  15.8274734
   8.4777403  29.5250535  15.3790498   8.7671691  30.9116292  15.9125495
  56.6451311  27.2265649   0.7027625  56.0016870  26.6310191   0.3186560
  57.4845600  26.9329786   0.3486462  11.6046345  16.1977446  25.4907942
  12.1583533  15.9998024  26.2460709  10.7316685  16.3276887  25.8613038
  70.8751345  22.2425008  24.8729300  70.9250736  23.0069876  24.2990875
  71.1773443  21.5148664  24.3293786  54.9264765  58.5838604  54.4298124
  55.3531790  59.2329121  53.8704443  55.4143953  57.7752924  54.2736578
  56.2336636   8.3263272  61.1765957  56.4332724   7.7107483  60.4712915
  55.9722471   7.7717626  61.9116831  71.1889553  18.6602879   5.3878963
  70.5127573  18.0108190   5.5807048  70.7026386  19.4406652   5.1219314
   9.7263026  50.8436871  64.2372942   9.7427851  51.7288637  63.8734007
  10.5401504  50.4436111  63.9309883  10.4669476  57.7964878  66.6146946
  10.9436584  57.0023775  66.3730860   9.6678722  57.4777985  67.0343971
  57.2722912   3.6829707  47.1550274  57.2619534   3.2757929  48.0212450
  58.0737305   3.3560923  46.7462730   5.0418353  63.9799261  63.9514399
   5.5402315  63.1732941  64.0824795   4.8780772  64.0098333  63.0088282
  72.2008657  42.5553131  12.3373258  72.5130701  41.7448187  11.9350064
  72.7053022  43.2459068  11.9073772  11.6785574  12.9680181  20.6093979
  11.2715054  12.1361637  20.3674078  11.7316437  12.9397404  21.5647054
  78.2607698  38.9449215   2.8629369  78.8180256  39.6662903   3.1550410
  77.6265955  38.8304043   3.5707101  77.5799417   7.8398603  42.9699183
  76.7089653   7.4863160  42.7892542  77.5034428   8.7745976  42.7784824
  80.8706379  27.1935844  56.3803911  80.2613544  26.4568806  56.4280844
  80.6191444  27.7600074  57.1098757  61.8588114  23.5118818   8.5775077
  62.2485638  23.5003376   9.4516885  61.2327433  22.7878547   8.5848212
  65.7437658  29.7438741   9.8350602  66.3495302  30.0216722  10.5221629
  65.2303267  30.5271578   9.6373707   1.0173336  19.8972023  15.0400746
   0.3245777  20.4513502  14.6805716   0.6404529  19.0173542  15.0478113
  77.1153498  28.9805555  31.8453646  76.4392519  29.6348691  32.0214367
  76.6764402  28.1405568  31.9795060  73.4852743  25.5830002  21.0988998
  73.4335375  25.2289176  20.2111030  73.4990549  26.5323949  20.9776807
  68.8740683  43.0778360   2.6660988  68.0315685  43.4114075   2.9745841
  69.4745636  43.2329559   3.3951890  52.1955824  48.6829233  16.2881660
  52.0733070  49.2667437  17.0367908  51.4482117  48.0860281  16.3253510
  44.8571301  28.7385726   3.8272035  44.8533773  28.2563567   3.0003509
  45.6289721  29.3020296   3.7723657  74.6209145  42.8669119  21.1017728
  75.4149675  42.3577452  21.2644243  74.0142345  42.2434759  20.7023931
  61.2979889  32.3734760  21.0878229  62.0748615  31.9066978  21.3957477
  60.6339455  32.1995068  21.7549109   3.2747769   6.0581547  35.8490062
   3.5269830   5.3573608  36.4502645   2.4242587   6.3560444  36.1716700
  21.7026901  46.2918091  64.1287756  21.1390662  46.3531113  64.9000120
  22.4629927  45.7924747  64.4268370  63.2858753  11.4926684  10.0009084
  63.7157202  10.9883702   9.3101490  62.7395248  12.1235847   9.5322126
  46.1609507  66.7722368   9.3959522  46.5631628  66.9846249   8.5537231
  46.4168310  67.4925947   9.9720097  28.7323689  55.0586605  17.8310978
  29.0059352  54.7479820  16.9680393  29.3418097  55.7681990  18.0344951
  72.0025015  36.2716222   5.4231870  72.6635695  36.6773677   5.9840709
  71.1866045  36.3532281   5.9170359  77.0379066  19.6306038  14.6383440
  77.5477791  20.4288507  14.5002723  77.5668764  19.1100943  15.2429044
  32.0667672  76.8121290  57.3771143  32.7859449  77.0763302  56.8033457
  31.3951039  76.4796114  56.7816877   1.7114873  10.3748524  18.2312572
   1.2718484  10.9139752  17.5737655   2.6316950  10.6325078  18.1759107
  28.1591296  65.9843826  64.3268728  28.5577655  65.4609728  63.6316299
  28.7699842  65.9133196  65.0603819  73.4949827  14.8589110   6.6881830
  72.6744556  14.6117759   7.1146679  74.1774559  14.5369875   7.2771060
  27.8110528  18.4824383  20.2289605  28.7100697  18.2144845  20.4192281
  27.3848939  17.6850450  19.9146605  81.5293789  24.0955067  28.1502604
  82.4366570  24.2392755  28.4193516  81.1447620  23.5890484  28.8656616
  11.5860569  63.0617952  32.9312372  11.7561042  63.4844971  32.0894289
  10.6497943  63.1934834  33.0805779  14.4166613  37.3868704  21.3128424
  13.6953461  36.7907310  21.5142226  14.6067810  37.2290134  20.3880882
  68.2173491  21.3779974  16.3035536  68.8095760  21.5907884  17.0248187
  67.7932882  20.5636358  16.5741432   1.1339048  24.0981746   0.5153734
   0.3595858  23.9217782   1.0497388   1.8073605  24.3526244   1.1462016
  37.8316736  63.9538717  58.2779741  37.6289773  64.5933867  57.5952101
  38.7873244  63.8994741  58.2790947  10.5174756  39.7180963  22.5348687
  10.2900565  39.2104483  23.3138442  10.0782609  39.2634988  21.8160748
  13.3970892  16.1093211  23.1716990  13.6718917  16.9366276  22.7763748
  12.7514148  16.3620102  23.8316131   0.0633785  28.8876581   0.0009319
  -0.3996590  28.2870269   0.5849513   0.9313270  28.4980059  -0.1042162
   6.1439270  29.7589564   8.1233019   6.6272509  30.4578638   7.6826686
   6.7989135  29.3202853   8.6662507  64.3201256  41.3177633   9.1333246
  65.2766514  41.3200140   9.0974301  64.1148043  41.4579058  10.0576806
   4.9734318   8.7732649   4.7387186   5.1419920   9.4569516   5.3870946
   4.0864900   8.4710997   4.9343282   2.8128484  15.9737587  37.0942092
   3.3832732  15.2683914  36.7887521   2.2068056  15.5465436  37.6995444
  68.0305386  30.0744820   7.7017313  68.3518982  29.5146155   6.9949716
  67.1249247  29.7949576   7.8357649  71.8837070   5.6812263   9.3641287
  71.0458326   5.6120968   9.8217523  72.3482084   6.3833290   9.8196745
  16.9997716  28.0463314  26.8002653  17.7436423  27.6647902  27.2664332
  16.6797817  28.7351346  27.3828387  13.2752395  60.5884647  63.4383917
  13.9118791  60.6250906  62.7245426  12.4239731  60.6253672  63.0022526
  74.6223927  25.1093960  16.4401805  74.4021797  25.1395845  15.5091453
  74.8656464  26.0091662  16.6580629   3.9406115   7.6441616   8.9553064
   4.2299488   8.2388449   9.6473092   4.7024897   7.0918196   8.7801158
   6.8127888   9.5030767   2.9841965   6.2111139   9.3990058   3.7213457
   6.8882942  10.4502583   2.8685391  73.6752081  12.3427153   0.2092367
  73.9559078  11.9046104  -0.5941956  74.4418430  12.8424108   0.4899549
  15.2454972  37.4193621  11.7499137  14.5249426  37.3818779  12.3789048
  15.9222257  37.9326725  12.1912563  65.5689430  57.0768499  56.3034868
  65.0341797  56.8192434  55.5525589  66.3953352  56.6097450  56.1805248
   9.1949081  71.9979239  50.0572968   9.3711835  72.9320288  49.9449873
   8.2422131  71.9410896  50.1306009  70.1071644  21.4762020   7.3164320
  69.8001957  21.1070657   6.4883381  70.3222179  22.3854065   7.1082711
  60.7358408   9.1400212   8.4241027  60.3422737   8.6714250   7.6880634
  60.1645517   8.9430648   9.1664451  26.2773848  43.5796595  13.5841084
  26.0777497  42.6450253  13.6373651  25.7724929  43.8899660  12.8324282
  20.9015679  11.0351050   3.8098842  21.0491586  10.4033446   4.5136786
  21.7577553  11.1341786   3.3935189  80.3803635  33.4380579  16.3982654
  80.8581161  33.2330680  15.5945468  80.1622581  32.5841069  16.7716730
  57.0558214  73.8395548   4.6637151  56.4683390  73.9290524   3.9133230
  57.1060753  74.7204018   5.0349510  68.0377483  70.6529570  64.0620184
  67.8859568  69.7922421  63.6716747  68.9501619  70.6276751  64.3502855
  31.4177418  20.8700752   4.3953228  31.5508652  21.7325449   4.0020615
  30.5222511  20.8961868   4.7324330   6.4218760  34.5764923  12.2094893
   6.1110985  34.6451545  13.1122267   5.6756502  34.2226934  11.7255414
  25.8152366  57.7305889   2.8613055  25.6034184  56.9005489   2.4342278
  24.9671149  58.0876541   3.1247947  60.1125431  28.6877322   6.1058861
  60.2273512  28.1727481   5.3072351  59.5006752  29.3808556   5.8580488
  80.4631138  28.0142522  24.9834585  80.1290894  27.6919389  24.1463375
  80.3600407  28.9645243  24.9325776  80.0881767   4.5728737  63.2621527
  80.3264236   5.3891963  63.7015724  79.6631956   4.0500635  63.9420700
   9.3673694   5.5913937  64.5849895   8.8223708   6.2783259  64.2011499
   8.8121957   4.8117030  64.5751762  76.7950916  38.5634851   5.1062888
  76.5647554  37.6782322   5.3882569  76.1892366  39.1316462   5.5820668
   6.5625626  61.0833216  56.0014772   6.2373108  60.7170200  55.1791239
   5.9199536  61.7527866  56.2362242  11.1298096  27.5718212  27.7026558
  10.3529489  27.4977732  27.1483660  10.8031344  27.4366546  28.5921741
  24.5604348  60.6130075  52.6067972  25.1663876  61.1671495  53.0987072
  24.3420029  59.9026442  53.2100391  30.8715296  66.5367031  59.1818666
  30.8619452  67.2067595  59.8653603  31.2607574  66.9731236  58.4240580
   0.2106809  13.7124944  14.5136762   0.9541226  14.3003726  14.6475625
   0.6069878  12.8509367  14.3837118   5.7147259  17.2660208  11.9745660
   5.4597151  17.0660555  12.8752410   4.9383742  17.6736581  11.5907145
  79.4954348   6.6676295  54.3121386  78.7327480   6.6634893  54.8905182
  80.1619434   7.1532172  54.7981358  75.7828808  22.9030633  13.9374757
  76.5239954  22.9772353  13.3362436  75.3755760  23.7691712  13.9235747
  75.0512934  17.6185071  17.9922044  74.5865107  18.3671200  17.6183248
  74.6159363  17.4603128  18.8298619  61.1621237  28.4945369  62.8875017
  61.5142488  28.3674502  63.7684584  61.6391993  27.8658295  62.3458767
  43.8551855  70.8740568  61.2425995  43.4625292  71.3912058  61.9458818
  44.6132851  70.4539251  61.6488123  14.8944652  22.5306726  19.7100520
  15.2891600  21.6898775  19.9413812  14.2674971  22.7023387  20.4126692
  80.0003719  15.7470024   8.7859952  80.1281548  15.4233027   9.6776903
  80.4373837  15.1005626   8.2315904  72.6740313  31.2041736  16.3426626
  72.1534061  31.5862083  15.6360996  72.2445393  31.5019321  17.1446013
  19.0771353  29.6143198   5.6206810  19.1638267  28.9073443   6.2601370
  18.2151818  29.4773674   5.2276003  80.5245018  13.6717093  36.8391466
  80.2300644  14.2457163  36.1320019  81.3251209  14.0834856  37.1642423
  27.3152471  13.0872190  59.5767450  27.0335770  12.1905506  59.3954182
  26.5340924  13.6190641  59.4245291  30.6471729  48.7700987  16.8634713
  29.8081803  48.3520365  16.6697085  30.6191707  48.9381266  17.8053916
  10.2477634  15.4648578  50.2086496   9.6993971  15.7224619  49.4675922
   9.6258575  15.2572072  50.9060335  81.8389606  30.2688146  43.4759378
  81.3731289  31.0967803  43.5930252  81.7493725  30.0734234  42.5431871
  79.1019344  31.1632109  47.2995853  79.5541620  31.5346599  48.0570459
  79.2192841  31.8141246  46.6076517   5.9174329  29.5567846  49.9000502
   5.7536066  29.1424227  49.0528822   5.5009329  28.9749193  50.5358124
  66.3874388  21.7015433  50.9820890  66.0713434  22.4575806  51.4767885
  66.1333179  21.8839836  50.0774527   1.2906401   9.0309584  52.9642248
   1.8933493   9.7695208  53.0508280   0.4475171   9.4330841  52.7552509
  29.4988966  63.1523800   3.1805807  28.9140677  62.5412893   2.7325028
  30.3687811  62.7642918   3.0861497   9.5538849  19.7293842  64.1133595
   9.7395939  18.9374721  64.6179533   9.9726617  19.5772767  63.2661724
   6.0016769  20.2036715  62.8564787   6.1660278  19.7045791  63.6565590
   6.6001838  20.9486365  62.9117012   2.4315552  47.9198599  41.7217398
   2.1801965  48.3875990  40.9253311   3.3852589  47.9953957  41.7529726
  11.2782121  39.4249129  57.6459312  11.1383045  40.1134014  56.9958258
  12.2283924  39.3130946  57.6756763  27.0862961  63.5460758   4.8097554
  27.0576334  64.4884586   4.9750519  28.0197215  63.3397341   4.7610235
  29.8040247  73.5454941   4.0474737  29.5899701  74.4155693   4.3842024
  29.6005082  72.9521227   4.7704691  30.6075406   1.9239290  30.0195456
  30.4632354   1.5375099  30.8833098  29.7284436   2.0390344  29.6587515
  81.7640686  22.6283002  25.6941390  81.3789940  23.3290291  26.2203813
  82.5180340  23.0356741  25.2677417  77.4787760   6.4097762  52.6828861
  77.6925945   6.1344844  51.7914104  78.3170557   6.3978255  53.1448030
  80.0902081  24.0875554  44.9855804  79.7860765  24.9051929  45.3795385
  79.8063421  24.1412640  44.0730238  12.4537992  29.7049809  58.1171656
  12.6658201  29.6976805  57.1837711  11.8310618  28.9863873  58.2269526
  69.7999620  12.6846349  35.4008937  70.5545378  13.2008934  35.6843019
  69.4828892  13.1340551  34.6174932  19.1913307  45.7968330  65.3719234
  18.8096619  46.2568521  66.1195469  18.5280514  45.8643770  64.6850967
  52.6335192  53.1206608  14.6705329  52.6117611  52.9301357  15.6083274
  51.8557549  52.6866817  14.3198526  12.9931223  14.2338514  61.6908741
  12.5160491  14.5142984  62.4718904  12.4774730  14.5746374  60.9599876
  51.3065767  57.2151852   6.5410018  51.2657833  56.3204718   6.2032777
  50.7721710  57.1961212   7.3349029  43.0488825  75.4889250   4.8222157
  42.3551702  76.1074162   4.5931661  43.1689262  75.6020689   5.7650942
  21.9879103  28.7550354  58.7287426  22.7387309  29.2438197  59.0657711
  21.8779492  29.0728402  57.8325605  17.0610726  16.3568258  62.2401571
  17.4455297  15.5422616  62.5640583  16.5839851  16.7114270  62.9904127
   7.6297092  55.5853748  61.8327856   7.9397845  56.4908695  61.8200445
   7.6122165  55.3512335  62.7607441  68.0846453   7.9997474  58.6906719
  68.3185530   7.1102947  58.9559889  68.1754303   7.9971409  57.7377939
  19.3632007   8.2250756  19.2968476  20.1575255   8.3737355  19.8098588
  18.6474144   8.4190851  19.9020267  26.1901498  23.6476016  62.8212547
  25.6674600  23.6886144  63.6220980  26.3051438  22.7114677  62.6579762
  17.1950793  41.9170666  59.6010017  17.5152886  42.6371050  60.1443577
  16.3287282  42.2027302  59.3110657  22.8710437  28.9597082  66.6633749
  23.1896639  29.8341179  66.4394903  21.9200373  29.0210772  66.5736580
  24.7702408  30.5378294  64.9138260  23.9546919  30.6072307  64.4175482
  25.3053522  29.9241090  64.4106007  46.7273712  46.9233274  19.0554619
  46.4831305  47.6087713  18.4335744  46.3925076  47.2330427  19.8969948
  72.1600628  76.3866711  62.0372581  71.2635469  76.0550213  62.0872545
  72.7077723  75.6274652  62.2368813   3.5294473  24.3171310  66.5666389
   4.2208710  24.3627214  67.2270060   3.4481612  25.2141571  66.2426472
  75.5390310  72.2873020  63.9162588  75.0419331  71.9912624  64.6788120
  74.8926163  72.3324585  63.2117462  13.5817349  37.5979161  57.4599314
  14.2298186  37.4403644  56.7733479  12.7919519  37.1546865  57.1500635
  17.1550119  65.8348799   1.4620420  16.4628077  65.4010630   0.9631532
  17.4838889  65.1581430   2.0537357  47.8423738  60.3422403  23.5419202
  47.0039320  59.9797630  23.2558060  48.4348202  60.1845884  22.8068113
  10.4163849  21.9237351  65.4299068  10.0172722  21.1788154  64.9804258
   9.9465740  21.9811916  66.2618971   2.7330673  42.2762632  47.1854639
   2.6141909  42.0869493  48.1161928   3.4942457  42.8558016  47.1542406
   3.3477277  45.0773954  43.4217453   3.4064129  44.8626041  44.3526840
   2.7324018  45.8095980  43.3832026  81.9783675  15.3638995  59.7123480
  82.0057893  15.2452421  60.6617689  81.2347746  15.9484589  59.5654058
  37.6418447  11.4381611  59.2310524  38.3801150  11.3480663  59.8336077
  37.0991349  10.6680775  59.4003725   0.1569339  34.2717147  63.2893515
   1.0287544  34.4530106  63.6404896  -0.4368237  34.4498062  64.0187073
  55.0272226  73.8465834   2.7503848  54.1949034  74.2907381   2.9122597
  55.1004171  73.8152218   1.7965031  10.0901926   9.5233625  43.9306831
  10.1127470  10.0316906  44.7414398   9.6991569   8.6869645  44.1831923
  67.4905014   1.7971228   2.3855296  66.5867901   1.8823686   2.0817704
  67.9916239   2.3770644   1.8121402  68.6575651  44.8382711  60.8026075
  67.8357458  45.1392937  60.4150200  68.3885241  44.3077612  61.5525484
  19.5109189   5.9997702  60.6289816  20.2943683   6.1305124  60.0948048
  19.0205538   6.8168813  60.5389643  25.0156593  17.6420677  45.0118256
  24.1516376  17.6313329  45.4236269  25.0230885  16.8667817  44.4504833
  77.0312023  11.7241693   3.2119006  76.5875673  12.0183790   4.0074259
  77.8446102  11.3276553   3.5239610  50.8384466  25.5119729   4.9034917
  50.0515699  25.6870747   5.4196262  51.0687637  24.6078014   5.1171809
  57.4103689  71.8818426  19.6786010  58.1920719  71.8385220  19.1278803
  57.7137899  71.6155958  20.5465198  33.0517077  47.1253586  17.4016619
  32.8025484  46.4321852  18.0129409  32.2198033  47.5012016  17.1137190
  17.4314797  39.5129108  60.9218597  17.5112402  40.1687431  60.2292156
  16.5691435  39.1213965  60.7828474  41.9852352  51.7347765   4.5566911
  41.5107870  52.1854591   5.2552754  42.6569510  51.2272358   5.0121409
  40.2148533  55.8367300  14.1674101  39.4880962  55.9868622  13.5628307
  40.4759836  56.7130804  14.4503379  45.1479149  54.3464661   9.1955447
  45.0407219  53.9650202   8.3241993  44.8187685  53.6750174   9.7930825
  46.1877489  51.2201309   2.2915813  46.3490057  51.4820528   1.3851458
  45.3336334  51.5977240   2.5016704  21.2452984  48.4658098  66.0594940
  21.8315363  49.1796637  65.8085537  21.6878009  48.0392027  66.7932701
   0.8085315   7.8852230  17.5146186   1.3002543   8.6696231  17.2713983
   0.5565170   8.0335414  18.4260583  22.4874616  56.3994980  15.5691993
  22.3187757  55.7838106  16.2824357  22.0359087  56.0214376  14.8146129
   9.9926907  22.6361465  33.4302640  10.7369435  22.1400189  33.7711072
   9.4838351  21.9944715  32.9347348  13.1094980  33.4336114  39.0318394
  14.0465736  33.2556534  39.1121626  12.6995647  32.5687170  39.0438080
  31.5807748   1.5121888  62.3053932  31.7458820   0.8369386  61.6473579
  32.1924400   2.2150277  62.0860386  31.3916564   9.8126876  38.8522577
  31.3319945   9.7027218  37.9032683  30.8883905   9.0813774  39.2102218
  48.5000038  56.8214941   2.0089021  48.4112120  55.8799362   1.8611994
  49.0132380  56.8903017   2.8139409  19.5566881  20.1127076  59.2969418
  19.8612034  19.2113781  59.1915560  18.9693856  20.2554345  58.5546923
  25.5069971   6.7914397  55.0121689  26.2982845   7.1938562  54.6541786
  24.8770905   6.8196744  54.2919970  28.3144426  54.6753979   7.0677608
  27.8643298  53.8422728   6.9279927  29.2437696  54.4629812   6.9813824
  21.5791440  34.3733001  61.2260294  21.6520810  33.4195495  61.2616682
  21.5968776  34.6492791  62.1424103  35.1130986  52.4641895   4.0621534
  35.9839272  52.8608704   4.0851873  35.2478766  51.5718412   4.3811929
   0.4292036  34.7841072  48.3512449   1.0702725  34.2744470  48.8467312
   0.9569722  35.3507805  47.7885962   6.1461669   7.3126781  49.7870064
   5.7775909   6.4612341  50.0224352   7.0540899   7.2719806  50.0874233
   9.0390223  28.9419627  46.1056805   8.6803341  29.4975758  46.7976856
   8.8013941  28.0519605  46.3657999  43.9336109  54.8405218   0.5367120
  44.8775244  54.6895742   0.5864256  43.7600279  55.4963064   1.2120248
  32.2248340   2.7943766  47.1448755  31.5844727   2.0912990  47.0360136
  33.0702758   2.3753288  46.9840765  78.1627035  18.0535185  54.8429441
  78.2049847  17.3209178  55.4575539  78.1912565  18.8332605  55.3974009
   8.7554544  40.2971125  61.3058233   7.9315877  40.6462193  61.6458225
   8.8199735  40.6549931  60.4203939  57.2761154  65.5827665   9.7766244
  57.3142815  65.4963923  10.7291555  57.4447727  64.6993113   9.4490689
  79.7803974  25.9190226  64.0540314  78.9056587  25.5321860  64.0162945
  80.0971985  25.8833575  63.1514788  71.2259102  56.8403721  60.3526068
  70.7644224  57.0741558  61.1579657  71.5917063  55.9736204  60.5291510
  78.1955242  10.5476308  39.8893785  78.0115223  11.1908674  39.2048192
  77.4349499   9.9664968  39.8826575  52.7177668   4.3375510  29.4674444
  53.3409548   5.0637913  29.4885397  52.0688391   4.5593187  30.1352334
  12.6607823  21.2798381   4.7256625  13.3642840  21.9207716   4.8282206
  13.0123508  20.6343699   4.1124713  50.3253603  59.8604393   1.8215267
  50.4924440  60.7847166   1.6370597  51.0262728  59.6054220   2.4214596
  11.8938696  28.6384678  47.3121643  10.9478986  28.7153220  47.1878052
  12.0890594  29.2316961  48.0375719   0.6056721  58.2816553  48.2724237
   0.3083218  59.1293573  48.6028957   1.5598813  58.3206654  48.3371878
   1.3588314  12.0172071  12.1241188   0.5133868  12.2348726  11.7315912
   2.0047957  12.3803854  11.5182602   2.5451824  31.8489933  61.9360542
   1.6109845  31.9290853  61.7434645   2.7977067  31.0092282  61.5523100
  75.8334780  12.2292566  18.7108195  76.3935566  11.4777827  18.5163093
  75.2251863  12.2719526  17.9729939   2.5516769  36.5055656  51.3770723
   3.3698925  36.3085389  51.8330717   1.9409828  35.8334804  51.6797066
  11.6239130  30.4154491  54.1490269  11.4811385  29.9627662  53.3178091
  10.8633828  30.9890127  54.2431068  20.4585385  42.4504662  61.0444689
  20.1626325  43.1754780  61.5949440  20.2701449  41.6661119  61.5597677
  81.3541412   4.2663658  66.2708139  81.1840534   5.0930935  65.8193445
  80.4849339   3.9047691  66.4439249  70.9328175  12.8344548   0.5235228
  70.7624912  13.7683666   0.4009216  71.8461323  12.7210021   0.2604245
  71.1126375   1.7145628  57.7859783  70.5497694   1.6735037  58.5591078
  70.5446863   1.4510295  57.0619535  45.0588703  59.2102432  12.6228774
  45.8389139  59.2084122  13.1776369  44.5597506  58.4451914  12.9088998
  58.3015633   2.4817784   1.8991780  58.5200644   2.9836547   2.6844224
  57.3673630   2.6415142   1.7650753  71.4908409  12.1643090  20.8428383
  71.0974646  13.0368996  20.8342719  72.4320698  12.3265111  20.9061265
  10.9085929  24.9033594  62.0118189  10.4442716  24.3901658  62.6730824
  11.5337849  24.2889524  61.6272783  43.6047649  17.8847051  66.2970924
  44.1238737  17.8476143  67.1004534  43.7145233  18.7819445  65.9822178
  35.9957647  76.7768574   0.8362930  36.6914654  77.3775053   1.1036124
  35.6335139  77.1684599   0.0415264  42.9797697  65.6371212  20.9064555
  43.7453890  65.1227045  21.1622643  42.8090668  65.3783798  20.0008368
  15.6869340  17.4893582  60.2192259  16.5205562  17.3338735  60.6632185
  15.0469470  17.5561750  60.9278774  18.9089549  10.6906021  41.7760849
  18.8249183   9.7635674  41.5529776  18.0154788  10.9712815  41.9739485
   8.8669801  11.0352063  57.2112560   8.2169259  11.2253368  56.5348577
   9.6563220  11.4915740  56.9198799  17.4058008  39.1589999  40.5681419
  17.4682498  38.3872318  41.1309052  16.6825831  38.9631748  39.9724579
  28.2763886  21.4130282  46.8273783  28.0557966  22.2666192  47.2001457
  28.1843638  21.5334034  45.8822489  49.1749191  57.0208979  11.5920985
  48.4616041  56.3934088  11.4751852  48.9395237  57.7586699  11.0295033
  63.4602642   6.4436167   0.1109136  63.6894512   7.3589015   0.2720342
  63.6232424   6.0053051   0.9461099  61.4575291  58.6150122   3.1867069
  61.6099548  59.2486906   2.4856731  61.4845848  57.7636433   2.7500492
   8.2750332   3.5469812  47.6071739   7.8456634   4.2210394  47.0803738
   7.6316971   3.3224609  48.2794428  16.7537761  36.0398149  59.7624588
  16.4985585  35.1959419  60.1352549  16.2989581  36.6871023  60.3013372
  58.2634830  17.3693526   7.7706915  57.9385185  17.8956807   7.0402050
  57.7036524  16.5929413   7.7741635   7.2355062  35.8160162  60.3238249
   7.8605711  35.3525019  59.7664404   7.3487478  35.4227781  61.1891413
   8.9387041  28.9619970  56.0785580   9.7113883  28.4120893  55.9489727
   8.3584446  28.7347865  55.3519869  16.6713309  30.5941749  53.8994026
  16.9980991  29.6984887  53.9842510  15.8474231  30.5957127  54.3866444
   5.1250297   4.9519646  59.6458960   5.7994878   4.5396027  59.1061783
   5.6118304   5.5084282  60.2538490  59.6041298  18.8945341  54.8321962
  60.0052643  19.3918860  54.1194820  58.7591934  19.3207991  54.9757767
  14.1696346  40.2992821  53.2552195  13.4519482  39.7251558  52.9877567
  14.6977007  40.4070139  52.4641609  78.2008934  32.6823497  61.8806171
  78.6218739  32.3043251  62.6526928  78.1091833  33.6120987  62.0889044
  17.2256625  33.1790423  57.5664330  16.5444040  33.8379836  57.4325895
  16.7458391  32.3771453  57.7737093   5.8534276  22.6566195  64.6916628
   6.7216992  22.9477429  64.4131231   5.2846169  22.8534961  63.9474010
   8.9043713   9.3356228  65.5830908   8.6977029   8.5307908  66.0582399
   9.7811908   9.1864568  65.2293015  22.8505445  16.7482591  50.9636736
  21.8958259  16.7494118  51.0325575  23.0234838  16.5938020  50.0349855
  14.2023540  33.7278295  65.6055641  14.0602517  32.8314781  65.9098577
  13.4560895  33.9077997  65.0337839  62.0583487   4.6935922   3.4667543
  62.7713108   5.1719517   3.0435652  62.1518898   4.8980296   4.3971774
  -0.0145120   6.3483959  20.0230789  -0.2490018   6.5808266  20.9215331
   0.5274824   5.5644715  20.1121640  24.3606472  17.8471124   8.4722263
  25.0226235  18.5279226   8.5927081  24.4300079  17.3039806   9.2573553
   9.2423904  68.7837553  18.8838696   9.9582559  68.6442089  18.2639539
   9.4106185  69.6508408  19.2527747  23.1697392  20.2491283  45.4611397
  22.6497912  19.5946264  44.9947596  22.5620675  20.6307125  46.0946751
  36.0790324  66.0674953  12.8949237  36.1524796  65.1159906  12.8209472
  35.1367331  66.2336540  12.9212868  41.3559246  66.0441065   6.1577624
  42.1958447  66.1637640   5.7145321  40.8448124  65.4992199   5.5593532
  42.6428509  56.1661434  11.8685806  42.5869608  56.7745733  12.6054132
  41.7356062  56.0454512  11.5882766  53.0409908  53.9839077   2.0032011
  53.4713459  53.6052752   1.2366086  53.0168152  54.9239445   1.8243946
  55.9101772  58.5865021  13.2435489  54.9550581  58.5243130  13.2329762
  56.1951399  58.0180788  12.5280619  19.6277213  23.6463308  56.0050392
  20.5370545  23.8204312  55.7620716  19.5383167  24.0199733  56.8817520
   6.7620075  18.2681251  64.9354219   7.3838264  18.0640769  64.2368937
   6.9305146  17.6069641  65.6067657  16.1731195  45.4628325  49.9943542
  15.6810915  45.4311609  50.8148050  15.7383573  44.8239326  49.4295311
  15.8829415  19.0199602  37.0785522  16.7826104  19.2497408  36.8461132
  15.9741330  18.3698404  37.7751565  13.0428970  26.6276383  53.7096071
  13.9265525  26.4660883  53.3790255  12.5301194  25.8824348  53.3966208
  26.3759041  22.9208612  44.4851875  26.3969946  23.1983042  43.5693216
  26.9459701  22.1525431  44.5158911  34.3860269  35.9004331  60.6805038
  34.6597290  36.7506433  60.3363228  34.3264627  36.0329580  61.6266108
  25.3824854  13.5294557  37.0267200  24.5511031  13.0796087  37.1772885
  25.7825971  13.0555952  36.2976098  78.9266396   1.4134744   2.7296075
  78.3647728   2.1216708   3.0442435  79.0529156   0.8505823   3.4934390
  33.3550620  42.8299999  23.4578514  33.2085991  43.3769941  24.2295909
  33.6003518  43.4480190  22.7692914  11.0417891   5.0825322   7.7933371
  10.3531754   5.7112122   7.5769931  10.9536433   4.9459225   8.7366289
  76.1409235   4.7678816  27.0242715  76.9695234   5.2127087  27.2025561
  76.3360882   3.8390845  27.1486855   0.3130222  52.4535894  63.5639238
  -0.1805104  52.3065996  62.7570486   0.1390105  53.3677864  63.7879515
  67.2060061   6.1504966   0.0145271  66.8501520   5.6513989   0.7497150
  67.1034336   7.0659786   0.2745313  14.2652512  10.9289670  45.3408194
  14.6220553  10.1918030  45.8363104  13.4172559  11.1038387  45.7489300
  11.5460229  12.5310659  55.5172586  11.9564772  12.7723420  56.3476467
  10.8351028  13.1628144  55.4090118  67.3536921   4.0068868  23.5595655
  67.3033953   3.0762723  23.7778759  66.7659998   4.4315910  24.1844487
  69.9064350   4.6575302  38.6651945  70.7411861   4.8159766  39.1060042
  69.8470831   5.3511113  38.0081892  49.4776392  71.5993690   6.4130920
  49.0555620  70.8855534   5.9350204  49.2338753  71.4525890   7.3270202
  31.1497569  67.3452425   5.0325745  31.4041924  68.2252359   4.7548929
  30.1942301  67.3431492   4.9760312  71.0927486   5.8335763   6.3818765
  70.5816650   5.1291102   5.9834391  71.5217066   5.4231411   7.1327221
  25.5092287  52.1875143  23.7701344  25.9642005  51.3470030  23.7174678
  26.1690068  52.8332615  23.5172892  27.8924680   0.3958942  58.1210423
  28.5504031   0.3556570  58.8151121  27.2140861   0.9756079  58.4673977
   0.7500119  17.4498940  48.2113695   0.4218480  17.4094570  47.3130894
   1.6331205  17.8095651  48.1277800  37.2963428  11.9660866  19.8445606
  38.2339311  11.7965674  19.7527695  37.2478962  12.8365552  20.2397442
  25.3168845  26.6227674  41.0108662  24.4672251  27.0451736  41.1368942
  25.2143574  26.1136985  40.2067709   6.1675638  27.1521854  43.2397223
   6.5742731  26.3306189  43.5151243   5.3776646  27.2200060  43.7760925
  39.3187022  19.1464210  52.3586464  39.6048403  18.9874697  53.2581377
  39.1816759  18.2725167  51.9929266  41.8284655  14.1578424  65.5014563
  41.2796593  14.1658294  66.2856627  42.7224588  14.0841687  65.8354998
  10.7926571  17.6815891  57.8456354  10.3623152  17.6322973  58.6992168
  10.0812960  17.5834084  57.2127390  50.5799484  49.9430656   3.0189991
  49.7850323  49.9889898   3.5502592  51.1772346  50.5699921   3.4269696
  12.4256921  27.9282689  64.9587870  12.0187426  27.4113488  65.6540728
  12.9701936  28.5652828  65.4213476  65.7583761  67.8199148  48.4795666
  66.3801098  67.9433346  49.1968107  66.2969971  67.8451490  47.6886892
  43.5851192  75.6730652   2.0547226  43.5912275  76.6033554   1.8294352
  42.9012394  75.5921125   2.7195439  69.1549492  76.1056709  38.4412599
  69.5917177  76.0938549  37.5896001  68.6257648  75.3081036  38.4501338
  15.6736565  12.0536447  64.8416948  15.7734299  12.5576699  64.0340853
  15.0075018  12.5278926  65.3392458  39.0245605  36.6945839  60.5607891
  39.5947266  37.4614573  60.6160212  38.4831762  36.8538284  59.7876310
  10.2375710  35.6649017   3.6029992   9.4887233  36.2471032   3.7314558
   9.8490620  34.8265338   3.3531347  38.0337024  40.7193947  61.5914631
  37.5555778  41.5483618  61.5703869  37.9967761  40.3986263  60.6903696
  19.6327841  61.4631033  66.7865801  20.1834726  60.7859325  66.3936329
  19.3370533  61.9913912  66.0451651  30.4994869  66.9008112  12.3675251
  30.4152608  66.0002470  12.0542812  30.7794547  67.3967934  11.5982080
  35.3998947  58.6004400  64.3092012  35.1384020  58.3175039  65.1854420
  36.1797833  58.0814075  64.1127014  15.9708488  60.0884104  48.0823040
  16.7934716  59.9890852  47.6030779  15.6084037  59.2033720  48.1219816
   1.4576450   1.6687500   0.8702011   2.0328757   2.1479069   0.2737533
   0.5809262   1.9995035   0.6747575   1.3419616   6.0828966   3.9365599
   1.5893137   5.1614368   4.0137663   2.1087071   6.5050566   3.5491145
   8.0506229   4.5092675   2.8641111   7.6089728   5.1976299   3.3614382
   8.5002553   4.9743986   2.1586218  48.5085249  50.0087643  13.7688088
  48.5694027  49.0831232  14.0048480  48.1848383  50.4372120  14.5612037
  19.2539108  48.4055614  56.7937517  18.7052143  49.1665173  56.6037226
  19.9894333  48.7594938  57.2937250  64.0352774  14.8412454  21.9184971
  63.7985754  14.0050220  21.5173316  63.4605789  14.9124491  22.6806545
  30.1744103  55.2620792  61.7850733  29.3420148  55.6486559  62.0569372
  30.8351302  55.7375813  62.2886372  69.7122335  13.2118773   7.8446364
  69.8807764  13.8211572   8.5633880  68.7591171  13.2029140   7.7567619
  74.9876881  76.6583824  18.6243188  75.6907511  76.6899920  19.2731142
  75.2844763  76.0150480  17.9806828  13.0547905  41.9931316  60.9584045
  12.6133752  42.2449350  60.1472425  13.5984766  41.2445879  60.7128096
  79.3362808  10.5396414  23.3582091  79.5192862  11.1931765  24.0332127
  80.0692272   9.9264878  23.4135008   9.4119436  38.1472492  62.7771616
   8.5184085  38.1294012  63.1199551   9.4482398  38.9416075  62.2443295
  77.6469803  18.2091129   4.9590567  78.1477737  18.3518231   5.7622182
  76.9379997  17.6213789   5.2201110  30.8448482  34.3035340  66.6498423
  31.2575030  34.3212652  65.7863379  30.8407497  33.3781075  66.8943834
  61.7659426  74.0795231  19.2684746  61.4419222  73.2214832  19.5423508
  62.3174477  74.3702841  19.9947906  16.7488456   3.9180827   9.8524076
  17.6246011   3.5640991  10.0072634  16.4924896   3.5597676   9.0026295
  52.4921894  56.1244965  29.0146542  53.1750774  56.2972164  29.6627760
  51.7832899  56.7238140  29.2481303  52.9221153  65.6780434   5.8925307
  52.1873665  65.0715923   5.9852153  53.6847448  65.1760435   6.1799812
  16.2794471   4.7572622   0.8274508  15.6798029   5.0813133   1.4994997
  15.8949387   3.9281103   0.5430354  22.2169518  37.3149991  60.3151989
  22.7210212  37.3953819  61.1249399  21.8916798  36.4148021  60.3239155
   8.7204200   3.6523181   5.4627079   8.0152589   4.2282647   5.1673007
   9.2461550   3.4956202   4.6783099  67.2397804  23.6264610   1.7160267
  68.0415535  23.9042044   1.2730211  66.6565323  23.3545041   1.0074431
  13.9081097  34.1229606  54.1511679  14.0269792  33.6660814  53.3184814
  13.0192447  34.4752908  54.1062880  19.5633900  44.7689581  62.3232317
  19.9281740  44.9034643  63.1979132  18.7713420  45.3062534  62.3088169
  13.5287166  34.6956539  58.5845280  13.1517971  35.5755186  58.5843611
  13.5442817  34.4419336  59.5073605  55.7198858  76.4513636   8.3966643
  55.7525778  75.6350613   8.8954771  56.6287804  76.7500687   8.3663166
   9.6059501  33.6019635  50.9269762   9.9227411  33.8824844  50.0683784
  10.3715420  33.2122517  51.3491440  10.4780006   0.0764526  28.0758333
  11.3989913  -0.0919505  27.8767133  10.4159272   1.0298807  28.1337452
  59.6814108   7.5563210   6.3770247  58.8341570   7.9693168   6.2102157
  59.4632578   6.7188895   6.7861068  69.9242640  39.8081112  12.2945154
  70.2003956  39.6908545  11.3855410  69.5822096  40.7014942  12.3275781
  77.4428940   8.2030147   1.6382582  76.7301941   7.9848379   2.2388360
  77.5807047   7.4038553   1.1297479  62.9300213   5.5882639  22.6014829
  62.6552629   6.4955413  22.7341008  62.8399992   5.1822883  23.4636378
  12.1656561  11.8406737   1.9289744  12.4009752  12.6872277   1.5492323
  12.7163780  11.2091839   1.4662027  42.6128769  56.1163235  26.1462307
  42.7620411  55.5320501  25.4028511  42.0769978  55.6028223  26.7507005
  59.9445152  71.1348152  18.9633846  60.5331898  71.0832977  19.7164047
  60.3514481  70.5745935  18.3024836  44.7698927  26.5930939  18.9278615
  44.7246027  25.6587338  18.7250066  45.7067251  26.7798543  18.9886415
  13.8216424  16.0935080  58.6506128  13.5926509  16.7276371  57.9711437
  14.4129491  16.5699279  59.2333746  18.7662709  39.3607092  54.5768547
  18.4663284  40.1490402  54.1243029  17.9719019  38.9862227  54.9575996
  43.0972862  31.5811658  64.4781971  43.1630898  31.9166422  65.3722620
  43.3654785  32.3158622  63.9263582  48.8204670  75.6612158  11.0093534
  49.5969248  76.1939478  10.8374679  48.7281656  75.1137972  10.2295816
   8.3261305  55.1637363  64.3576765   8.7935054  54.3821859  64.6525764
   8.3523506  55.7562494  65.1089907  29.5216322  50.6241083  66.4774847
  29.3438840  51.0715485  67.3047924  28.9534545  51.0601711  65.8424616
  22.9599524  34.1213536  66.2167311  23.8129783  34.4503164  66.5002108
  22.7851772  33.3790803  66.7952776  17.7534580  35.9735250  49.6713305
  17.6223505  35.4021263  50.4279947  18.4895325  35.5825400  49.2006302
  11.1866367  46.0153866  45.2671528  10.7523334  45.6347370  44.5037937
  10.4695594  46.3122082  45.8274508  70.0040865  23.8126516   1.3373537
  70.1834011  23.2317138   2.0766705  70.7065821  24.4621444   1.3672312
  14.8282290  54.8392916  53.5129881  14.2515540  54.5798063  54.2315626
  14.3712795  55.5660915  53.0896807  24.8921967  39.8993254  55.8848333
  25.3978872  39.3170524  56.4518118  25.5024934  40.6003618  55.6560993
  35.0802302  57.4949789  58.7710953  35.1765561  56.6729736  59.2519903
  34.1353154  57.6444721  58.7391615  32.7238536  49.2916536  63.6311388
  33.2132840  49.7831535  62.9715061  31.9415665  48.9870310  63.1712818
  25.3615880  38.7599850  61.9717836  25.1759028  39.6643806  61.7191505
  25.2629113  38.7521791  62.9238510  33.3043456  54.5681667  13.6749065
  33.3411717  54.7955036  12.7458239  34.1574049  54.1750717  13.8592935
  77.8546286   2.6646817   5.0580096  78.7339926   2.4197175   5.3460169
  77.4362993   3.0205679   5.8419591  64.4073820  71.0137415  21.8826056
  64.7983313  70.1487494  22.0058489  64.3346453  71.3719559  22.7672648
  68.2876492   1.4263703  31.9394374  68.4956694   1.4649296  31.0059094
  67.9261065   0.5494843  32.0682406  66.0508108  50.6488228   1.6884559
  65.5442095  50.9992409   2.4211189  65.3946495  50.2728891   1.1016379
   2.3318024  27.2991395   4.0014094   2.4194749  27.3671532   4.9521562
   1.9874267  28.1503654   3.7311339  44.7159624  59.2547178  64.8074818
  44.0790558  58.7573576  65.3205252  45.3199291  58.5935307  64.4694233
  18.4953892  46.3609028  58.5121822  19.2586279  46.4145041  59.0873528
  18.7850213  46.7604876  57.6920128   9.1511697  22.6208138   7.8949040
   9.6863210  22.1680450   8.5467058   9.1423470  22.0312452   7.1408743
  13.5967350  61.4116383  57.6958561  13.8428211  62.3364449  57.7161217
  14.3604147  60.9686279  57.3260355  32.4988231  70.9864316   0.0313272
  32.0693323  71.5906558   0.6368675  33.1486359  71.5233812  -0.4221688
  10.3714108  42.7277660  65.3740644  10.9919643  42.5241804  64.6742773
  10.7268775  43.5141754  65.7881117   0.3165553  14.2250621  -0.1020494
   0.5667301  13.5433328   0.5215609  -0.6395627  14.2469668  -0.0621703
  33.3484936  74.1887140  28.9582109  32.7965546  74.8799610  29.3239546
  33.4535694  73.5621357  29.6741652  72.8807116   3.6962926  36.3701677
  73.4031534   4.2972884  36.9012928  73.3965969   2.8904706  36.3428950
  77.7516651  10.3269672  26.5306258  77.1300507   9.8950845  25.9447050
  77.6358318  11.2610078  26.3563180  81.5061951  63.8766003  54.3087578
  80.7237244  63.4302807  53.9850712  82.2208023  63.5202265  53.7809706
  80.8895588  72.7270794  15.4065192  81.5305233  73.4376431  15.3842950
  80.8935642  72.3730040  14.5172226  66.4591026   3.8219681   9.3564290
  66.9285679   4.4145069   8.7692904  66.8434668   2.9619884   9.1863436
  25.9864259  50.8843946  59.2910528  26.8875194  51.0890818  59.5407820
  26.0603929  50.0975180  58.7510633  24.2855358  56.8250704  64.4286871
  25.1111007  56.5512896  64.8283386  24.5242143  57.0821190  63.5380793
  26.4795065  56.1770773  57.5427866  26.9764042  56.4180088  56.7609453
  25.6807256  55.7729864  57.2038269  61.7400217  67.0765781   4.4543970
  62.5015545  67.2792864   4.9977297  61.3194180  67.9235125   4.3059805
  22.4012232  64.7010708  38.0487061  22.0878077  64.6780539  38.9528465
  22.4494290  65.6329918  37.8355694  18.1211746  20.7634664   8.3997142
  17.4423003  20.0893092   8.4292668  17.7300954  21.5167522   8.8422650
  79.8314476  47.9986238  60.0490808  80.6357288  47.5392866  60.2907038
  79.1562271  47.3202181  60.0581408  65.0664473  71.9155741  19.1111147
  65.8246231  72.3199654  19.5328593  64.8339272  71.1858177  19.6852458
  33.1590152  33.1877542  64.5618486  34.0042090  32.9754710  64.1658545
  33.0450797  34.1235590  64.3959570  48.7788534  13.9958119  58.0450106
  48.3107185  13.2685816  58.4551573  48.3959293  14.0643072  57.1704197
  76.1060905  45.6822443  47.2162056  76.8540001  45.8239603  47.7965355
  76.1924601  46.3588190  46.5446234  20.7638001  43.8256693  66.3186836
  20.9137940  43.9136696  67.2599506  20.0361204  44.4199419  66.1355162
  20.2765536  19.5784009  19.6878183  20.0409198  19.2064464  20.5377340
  20.4451561  20.5029655  19.8694384   9.9432009  55.7523108  52.9353714
  10.6072676  55.9635115  52.2791386   9.2196542  55.3786516  52.4322891
  12.4321091  47.1081638  37.1836638  12.3869729  47.9394197  36.7112160
  12.8720427  47.3236370  38.0060148  57.6546240  53.8161087  23.2992792
  58.4228945  53.6110830  23.8321614  56.9198179  53.7708521  23.9110303
  68.8203382  15.7332015   0.5810332  68.0848503  15.6893170  -0.0300014
  69.0868807  16.6524673   0.5693812   1.4406548  65.8855200   6.5066910
   2.3278376  66.2404633   6.5628546   1.5346920  64.9654961   6.7535728
  80.5534744  23.7573409   1.4645831  80.1502991  23.5623121   2.3105407
  79.9509668  23.3851576   0.8206194  82.1072769   1.9390811  12.3192835
  81.7016888   2.3787129  13.0665815  81.5972614   1.1367974  12.2076714
  19.8109841  33.6308026  48.8137865  19.8052502  33.6823583  49.7695827
  20.6597781  33.2434559  48.5999107  24.6926451  65.5260038  64.8369122
  25.1735759  66.3072681  64.5638561  25.0101042  65.3464413  65.7219028
   0.9430308  40.1484299  65.9041309   1.0430698  40.3799534  66.8275070
   0.3447982  39.4012117  65.9080172  18.4917426   5.6848872   4.3094769
  18.5871065   5.2175397   3.4795827  18.0975199   5.0441116   4.9012768
  78.5725641  62.5453806  59.4873476  77.6513481  62.6970911  59.2762136
  78.9272165  62.1093845  58.7125158  19.8531628  36.1856508  52.9292393
  18.9018941  36.2827754  52.9726744  19.9911106  35.2549100  52.7533913
   1.9576965  30.9134436  65.0492668   2.1719408  31.3769269  64.2396307
   1.3745767  30.2062964  64.7733212  45.1453209  69.1122770   0.4962144
  44.2722940  68.9029217   0.1642029  45.0063324  69.8549271   1.0839127
  25.3832889  58.8950157  61.6297293  26.1453676  58.9958954  61.0593843
  24.9240851  58.1301451  61.2828302  21.5017247  41.2460852  65.5126381
  21.3098669  42.1783495  65.6141663  21.7018247  41.1426640  64.5823145
   4.0428683   1.6458437   5.3354484   4.7648147   1.1486335   5.7199055
   4.1381127   2.5262353   5.6988639  17.4080372  37.5438833  57.4795532
  17.1320832  37.1147776  58.2894611  17.4564540  38.4728527  57.7051687
   5.7036996   3.1486201   0.6892760   5.8081621   2.6336485   1.4893533
   5.6449878   2.4967486  -0.0091853  14.9553525  19.4770157   4.1530931
  14.7716546  19.8013568   5.0347334  14.1933131  18.9419961   3.9311004
  75.8408070  40.5273485  58.2333708  76.4748287  40.3145456  58.9181805
  76.1352158  40.0288439  57.4711084   6.8095601  18.5161352   6.8568593
   6.4642340  17.7222216   7.2651267   6.1151385  18.8016427   6.2631458
  23.3163595  63.2454157  12.0974207  23.0387545  63.4368992  11.2015963
  22.6752973  62.6100779  12.4161935  61.2742090  72.6103020   3.6616939
  60.7288885  72.7728033   2.8919843  61.2994003  73.4507465   4.1191322
  12.8725350  57.0039463  41.9335270  13.4342074  56.3665628  41.4925146
  12.6499021  57.6386642  41.2524986  35.2300906  40.7583904  64.9510956
  35.2845144  41.6902781  64.7392988  36.1112404  40.4232359  64.7853136
  71.0482693   4.2577171   3.9841488  71.6983843   4.9600244   4.0028673
  71.3996840   3.6226118   3.3601448  78.4194374   7.2021794  15.7095528
  78.5789967   6.9870657  16.6285193  79.2773438   7.4584723  15.3711128
  18.0140972  61.9320917  55.5771589  18.4515810  62.2949791  54.8069954
  17.2606862  62.5056887  55.7171345   7.1236151  13.8059425  14.8720372
   6.9669199  14.0454018  13.9586163   7.9661804  14.2077625  15.0838280
   7.8840768   6.0377067  20.9740376   7.4656099   5.4358971  20.3584552
   8.7377203   5.6429601  21.1520839  30.4061437  45.8592844  59.2087603
  29.6404886  46.2081194  58.7523365  31.0369730  45.6758165  58.5126114
  39.2160344  33.3120608  63.4279060  38.6502361  34.0570760  63.2252884
  39.9046302  33.3467031  62.7639294   5.8167773  25.7433987  54.9772787
   5.6507885  26.5230346  55.5072308   6.7652166  25.7390428  54.8481464
   4.8942560  19.6016002   3.3791551   4.5208582  19.6523988   4.2590559
   4.9566615  20.5127287   3.0924824  39.8424554  30.6293368  64.0486717
  39.2740488  30.0168800  63.5817242  39.5067239  31.4943886  63.8137150
  78.1148434   0.1277028  10.3333199  77.7061462   0.1148082   9.4678521
  78.7724590   0.8209820  10.2773440  47.7649927  59.7723293   5.4190195
  47.7018547  59.6692896   6.3685608  46.9712734  59.3585253   5.0798953
  22.3114419  57.5235844  66.6967249  21.5417314  56.9776392  66.5363455
  22.9721522  57.1903706  66.0895443   8.5687947  40.4956388  57.7873182
   9.4359863  40.1000786  57.8753281   7.9596913  39.7687030  57.9169035
  70.6591654   0.6217824  18.6146891  70.9553862  -0.0548601  18.0058885
  69.9517012   1.0688822  18.1501162   9.5547360   9.8448098  30.7322311
  10.1268578   9.4500238  31.3902974  10.1522136  10.1643944  30.0561261
  26.5015411  35.0438976  63.1941557  25.6158948  35.3590202  63.3746004
  26.5495896  34.1972160  63.6380625  54.1772413  65.8350420   0.4284348
  54.2205811  64.9389791   0.7622337  55.0322819  65.9815407   0.0238678
  77.9571533  75.4115343  31.3496637  78.6095142  75.6188631  32.0187426
  77.6508808  74.5337772  31.5776253  12.8064644  47.5456810  54.4214201
  13.5279620  48.1492853  54.5984364  12.1496415  47.7563429  55.0850773
  54.9579000  71.3666058  13.7793911  54.9860764  71.5085316  14.7255909
  54.0247011  71.3159990  13.5724747  18.3523679  42.2297239  64.2783785
  17.4926376  42.0710325  63.8886213  18.3675706  43.1713486  64.4496775
  52.5900126  69.8935604  11.9293797  52.8478956  70.0546026  11.0217488
  51.6588545  70.1136684  11.9564593  28.9437413  66.2427235  22.6281810
  29.2311525  66.7746162  21.8860793  28.1152344  65.8588171  22.3410821
  33.9227366  65.1472616  25.3056169  33.1200981  65.4885721  24.9112701
  33.7912989  64.1995621  25.3342700   7.0116570   8.3014242  -0.0635157
   6.4677742   7.6862804   0.4284372   6.5678051   9.1439573   0.0332727
   7.6420039  64.3985558  50.9056664   8.2937264  64.4282866  50.2052355
   7.2836363  63.5120487  50.8619022  37.0890880  71.5831995   7.3184860
  37.7082348  72.2576761   7.0392567  36.9646502  71.0363817   6.5427709
  19.4963133  57.2970867  65.9989834  19.9275136  56.8442965  65.2742195
  18.9177561  57.9309702  65.5750751  40.5623484  36.4809966  62.9301119
  39.8241091  36.8812466  63.3894968  40.2004004  36.2083125  62.0869827
  10.8249032   8.0363315  15.4476345  10.6277347   8.8047069  15.9833169
  11.7682922   8.0872643  15.2938318  21.7084122  15.9799504  12.9516637
  21.6392779  15.2420044  13.5573781  21.1789012  15.7211483  12.1974301
  14.5325541  47.0800877  60.9723234  14.7684741  46.5289021  60.2261543
  13.8561440  47.6661205  60.6328154  69.9719715   2.6272041  10.5175078
  69.1377544   2.9343507  10.8724415  70.6332350   3.1410307  10.9811294
  78.8393736  21.0234976   4.5432928  78.5573626  21.1075902   3.6324531
  78.4776402  20.1847911   4.8295632  47.5094700  72.8283596  17.0336330
  47.1202326  73.6947489  16.9149017  48.4369564  72.9528522  16.8323886
  17.6724541  68.8726902  57.5146770  17.7666891  68.7909317  58.4637117
  17.9936004  68.0396700  57.1694517  13.9345729  41.2064409  57.0465946
  13.0539882  41.4707279  56.7802191  14.3088508  41.9906521  57.4480391
  18.8065636  26.9130826   6.9936550  19.0788484  26.2151670   6.3978308
  19.3926096  26.8281817   7.7457005  22.9857135  13.8512969   9.7575593
  22.3472667  14.1462815   9.1082519  22.9478598  12.8958476   9.7137994
  27.1684575  67.4578047  60.4012966  26.3029099  67.5031757  60.8075047
  27.5021458  66.5942144  60.6443930  32.0041895  28.3279848  11.9949377
  31.9541979  28.8978720  11.2275004  31.2815833  28.6144900  12.5534976
  26.1353016  64.6526814  46.7229271  26.0764122  64.0470886  47.4618626
  25.4535770  65.3031397  46.8914223   1.9055411  33.3672857   1.1262275
   0.9916711  33.1052685   1.0147800   2.3580435  32.9835057   0.3751043
   4.1981941  35.9857583  10.6623435   4.5806807  35.1159668  10.5465984
   3.9168030  36.2424564   9.7841883  70.8501536   6.2770931  -0.0668583
  71.6429096   6.6035358   0.3588190  70.1336449   6.6107504   0.4730692
  45.7666540  76.5582418  66.3972569  45.4742575  77.3065519  66.9176102
  46.0220671  75.9013176  67.0449018  62.1924210  30.4784393   9.5915639
  62.5271845  31.1041594  10.2339339  61.6770601  29.8582673  10.1073372
  40.2335262  39.0612626  60.8190298  39.6485639  39.5192814  61.4225769
  40.8887243  39.7159100  60.5774021  34.0361977  65.1560688  66.4409781
  33.4978271  64.9407864  65.6793690  34.5624375  64.3708849  66.5919495
  24.6586585  67.5358438  40.4797411  23.7396979  67.5651026  40.7459879
  24.7462988  68.2453012  39.8431730  45.9482574  62.0515203  64.9662018
  45.6962681  61.3716698  64.3412733  45.1573086  62.5788355  65.0783348
  51.6786861  24.8723769  12.3783541  51.8684816  24.3652081  13.1676507
  52.3093605  25.5921459  12.3987341  26.4185667  32.6572943  64.5782423
  27.1597409  32.4234653  65.1370049  25.7626677  31.9831395  64.7558451
   9.5382196  35.9427214  19.1188586  10.1940691  36.2347817  18.4857762
   9.7566712  35.0255632  19.2841887  72.0629740  13.9579976   4.2501074
  71.9661808  14.6090817   3.5551590  72.8354740  14.2422032   4.7386792
  76.4140129  14.5388591  20.0183082  76.2183523  13.6580133  19.6988428
  75.7365704  14.7125816  20.6718564  36.1986613  61.7557001  58.3375072
  35.5159545  61.9354057  57.6910973  36.8583584  62.4319315  58.1834364
   6.6448921  71.8468618  54.0600634   7.5560844  72.0096445  54.3039131
   6.3511658  72.6693821  53.6683798  24.1091347  27.5938320  20.8972263
  24.7882438  27.6811171  21.5661216  24.2657709  26.7336178  20.5077004
   2.2761425  14.2774451  17.5991178   1.9700043  14.7990835  18.3410108
   1.5394901  13.7031555  17.3899138  64.3146181  13.1531489   1.4956975
  65.2417898  13.3068621   1.6772409  63.8662100  13.4177113   2.2989236
  65.0440407  65.5549431  65.0104332  65.6157684  66.1532640  65.4914474
  65.2452946  64.6907759  65.3695202  24.4911456  53.7552166  58.2212877
  24.7447443  52.9026937  58.5750198  24.6957922  54.3753862  58.9211035
  70.6200743  20.9563375   9.8793870  70.2667713  21.0394645   8.9936674
  71.4648438  21.4050007   9.8433673   9.0946203  60.7535553  42.6855087
   8.9806271  59.9745893  43.2299852   8.2188386  60.9392500  42.3467541
  17.9260337  16.0713911   2.7335757  18.8339210  15.7681775   2.7395105
  17.8642642  16.6573107   3.4879720   2.1467380  24.3832421   3.5191402
   2.4796499  25.2741599   3.6271670   1.2275736  24.4376659   3.7806869
  41.9423676  58.9836121  66.0066128  42.4640846  59.3982124  66.6937494
  41.6067410  58.1833935  66.4106321  77.6555014   7.3022807  12.3571610
  78.5063076   7.6287514  12.0642912  77.8628349   6.7027181  13.0739379
  55.1479053  56.7049885  65.7261992  55.0417709  55.9106398  66.2496281
  55.8823633  57.1640205  66.1337423  33.0952048  52.6646042  62.3140097
  33.1535697  52.0344210  61.5958881  33.5057712  53.4580517  61.9703436
  38.0137396  55.6367397  61.0783339  38.6228108  56.1004448  60.5036688
  37.3213983  55.3276491  60.4940748   5.4766095  54.4132280  36.5630603
   5.6958437  53.8320732  37.2913623   4.7732833  53.9598942  36.0982442
  61.0506630   3.0343309  56.2047911  61.6901207   3.2744479  56.8753672
  61.1227560   3.7256068  55.5466318   8.5847235  32.3797560  13.4487867
   8.7712133  33.0380321  12.7793658   7.9597324  31.7857885  13.0330694
  23.7535763  51.3430738  54.7322416  23.4136343  50.7137203  54.0961742
  24.0632200  52.0767975  54.2012072  76.5296650   0.4220670  61.1244822
  75.7530499   0.9764412  61.2004805  76.1877012  -0.4719092  61.1345673
  17.1345484  19.5927811   2.6171449  17.9319930  20.0349855   2.9082969
  16.6047025  19.5079327   3.4097964  22.9694128  71.4525986  39.0441799
  22.8723574  71.4512825  39.9964476  23.0416894  72.3784113  38.8120699
  18.1570220  66.5512037  64.9541712  17.6963294  67.3295355  65.2675343
  17.8510213  66.4378214  64.0543127  18.2682192  60.5284500  52.0507956
  17.7501965  59.8701954  52.5140285  18.5616422  61.1283875  52.7365160
  76.7450142   5.2587909   5.6076008  76.5722656   5.0350308   6.5221065
  76.8988657   4.4164145   5.1798582   5.0973201  28.0662704   5.9640831
   5.3959066  28.6597395   6.6531932   5.6851989  28.2382846   5.2285278
  15.0544631  51.3667059  55.4762077  14.7375584  51.5953064  54.6023941
  15.4135764  52.1837902  55.8220959   3.6625522   5.0702375   0.1644550
   4.5843536   4.9544868   0.3949238   3.3049619   5.6087488   0.8704058
  35.3875113  69.5234966  65.2074623  35.9925771  70.1147127  65.6553364
  34.5490694  69.9851418  65.2188969  15.5921841  22.4120522  13.3738136
  14.6769059  22.1874142  13.5412550  16.0540760  21.5742660  13.4054697
  15.3392684  11.5789366   5.6966698  15.0247610  11.7391396   6.5864182
  14.5679212  11.7039561   5.1438355  33.2336307  47.3705864  59.5865202
  32.6828742  48.0821133  59.2599869  33.8563585  47.2055006  58.8785744
  33.7104440  44.9383354  61.2467957  33.8500595  45.7692337  60.7925367
  34.2815065  44.3184280  60.7931089  33.8704920  67.1287441  61.0350657
  33.4273219  66.9478655  61.8639898  33.9909935  66.2675524  60.6349897
  23.5338783  44.4431925  66.6598034  24.2355275  44.6695232  66.0493183
  22.7682757  44.3017244  66.1029673  26.6066861  56.1600542  65.4957438
  27.3248672  55.5277061  65.4715729  26.7218494  56.6216564  66.3263369
  56.8087578  50.9085989  61.3814497  56.2300587  50.7944727  60.6275845
  57.0930386  50.0215054  61.6016340  23.9425349  56.6105843  61.4771223
  23.0419421  56.3009119  61.3808489  24.4818425  55.8525181  61.2519264
  10.8283818  27.8065944  16.6634583  11.4418900  27.2565365  17.1505666
  11.3721454  28.5017896  16.2929738  37.5466752   4.1597578  50.0884008
  38.2759500   3.5623434  50.2541876  37.9517460   5.0259358  50.0449657
   6.8011642  67.6985598  54.4970751   6.2730855  68.4478092  54.2214060
   6.4729756  66.9682550  53.9724970  59.6775818  69.8689365  66.8687534
  59.2645550  69.6704340  66.0283756  58.9455652  70.0466013  67.4593639
  43.9986467  31.4060068  13.7620521  44.5831060  30.7655144  13.3565736
  43.9553165  32.1241283  13.1306612  31.2078905  42.8501320  63.6964560
  31.7687774  43.5458326  64.0394402  30.6719780  43.2809448  63.0305529
  36.0360456  60.8430529  62.8042793  35.9945059  60.4522324  61.9314909
  35.8226991  60.1240587  63.3990622  76.1636925  14.7225583  24.4649124
  75.3583145  14.8805094  23.9723158  76.8443203  14.6536124  23.7954164
  36.3668442  47.4608707  63.2769775  36.8903327  48.1590080  63.6704206
  36.3437986  47.6753283  62.3443937  67.5174236  15.4716206   7.4020749
  67.7685833  15.1853776   8.2802635  68.0508566  16.2501645   7.2422183
  59.5416451   4.2151105  62.3330641  59.2518568   4.7982720  63.0346155
  58.8709259   4.3033507  61.6558743  50.1026917  76.8502951  66.8520546
  49.6394062  76.6120386  66.0490370  50.6855297  76.1100197  67.0209408
  68.7394762  10.1810765   5.6050843  69.1099596   9.4135189   6.0407788
  69.4714832  10.7939744   5.5361736  19.4955528  18.1740820   8.1332296
  19.9333644  18.6286187   7.4135423  18.8494217  18.8024437   8.4555787
  14.3096972  66.1148643  60.2417517  13.4459591  66.3367367  60.5895424
  14.8424995  65.9397984  61.0174465  11.2123573   3.1669408   3.9229113
  11.0863113   4.0964884   3.7324247  12.0388889   3.1310403   4.4043556
  17.0741653  57.5129366  62.9151773  17.9561245  57.1459389  62.8544044
  16.5444636  56.9597340  62.3410559  22.9500127  29.8403263   6.3465649
  22.0633936  30.1910257   6.4311039  23.3721995  30.4091382   5.7027924
   3.9142475  57.2367668  66.4865351   3.6675918  57.9408121  65.8867693
   4.4420010  56.6420364  65.9536123  50.3198910  63.6665154  65.9414101
  50.9880161  64.3451071  65.8446980  50.1552916  63.6249828  66.8834352
  55.9840393  71.4630556  60.8505535  55.4117107  71.2724400  60.1073599
  56.3942289  72.2989893  60.6287479  13.5762596  64.0189266  57.9467297
  13.0840683  64.3902969  58.6788893  13.0806255  64.2769337  57.1695471
   4.8818442  26.5743566  21.2392330   5.0411379  27.2692800  20.6005335
   5.0338823  26.9897723  22.0880842  75.1829672   8.9291096  64.0242672
  74.6235991   9.3822819  64.6551180  75.0206852   7.9995143  64.1847277
  10.2057672  60.4698181  59.2068958  10.0122344  60.2990246  58.2851553
   9.3485916  60.6072044  59.6101427  23.9104271  52.0498657  63.3853626
  24.4745851  51.4212084  62.9350853  24.5031381  52.5356627  63.9588833
  78.2825422  76.1710501  25.2001762  78.7615061  75.3463507  25.1183462
  78.8125992  76.6975021  25.7986093  40.9091043  63.3446026  42.0502424
  40.2631092  62.6386118  42.0725107  41.0316229  63.5278559  41.1187744
  41.6923952  65.2142000  57.6735020  41.4761162  64.6122408  56.9613934
  42.5467777  64.9174166  57.9868412  39.1608620  54.1558599  62.7726650
  38.5443234  54.6299124  62.2146463  39.9969077  54.2153978  62.3103714
  16.4212072  65.4033899  58.5565901  16.8056798  66.2531233  58.7719154
  15.5317581  65.4470825  58.9075947  15.2675104  55.4341125  58.0395317
  15.2383375  55.2867079  58.9848661  14.7439587  56.2238979  57.9040098
  66.4275551   8.0025500  31.8020940  66.2998629   8.4952474  30.9914303
  66.1438370   8.6009085  32.4932551  81.7822075   2.5003672  61.3455105
  82.1787739   3.1756613  61.8959141  81.1857510   2.0338848  61.9310570
  77.8311825   2.1041001  48.9071274  78.0128241   1.3059300  48.4109831
  77.1933270   2.5779352  48.3734131  38.1487250  52.6850080  64.8613977
  37.3445773  52.2574949  64.5667648  38.6452365  52.8410006  64.0580463
   5.1615530   8.2303953  24.5033407   5.9218371   7.7453917  24.1824484
   5.4892200   8.7158018  25.2604699  68.6905956   8.5866743  63.6274052
  69.5410538   8.2618934  63.9231491  68.7571049   8.5972619  62.6725769
  12.6930809  52.4061775  64.4013977  12.7100897  52.7579308  63.5113335
  12.0031333  52.9023409  64.8418760  29.9744129  66.1619949  66.3419056
  30.2318645  65.6898642  67.1337700  30.6022573  66.8816280  66.2773228
  55.7204533  76.4690924  22.4161530  55.4728651  76.8607759  23.2537174
  54.9783278  76.6489029  21.8389630  69.2374229  53.1920767   3.5994396
  69.3354368  54.1282082   3.7734732  69.9785995  52.7860165   4.0488905
  16.4464211  26.8204832  21.8982077  17.2744334  26.8570685  22.3770499
  15.9440494  27.5640512  22.2313166  19.0699542  53.3130217  49.0886688
  19.1805589  52.9259872  49.9571180  18.2215071  53.7542820  49.1293907
  73.3207655  37.5769901   7.2159398  74.1920280  37.6057816   6.8205905
  73.0875826  38.4957886   7.3488635   2.4958982  22.5604773   7.2168136
   3.1151047  22.7974391   6.5264046   3.0297452  22.1152806   7.8748691
  52.9265118  36.5111566  58.3495665  52.0663500  36.2104917  58.6427498
  52.7374601  37.1104527  57.6275301  20.5277491  41.5375710  28.0451202
  19.8467183  40.9658909  27.6907110  20.0634384  42.1175671  28.6486530
  78.7557125  51.2190485  65.8035183  79.3122435  51.9870663  65.9325647
  78.3105564  51.3828135  64.9721003   0.0436877  71.7292595  53.7555838
   0.8386182  72.0890665  53.3620691   0.2575310  70.8131886  53.9325571
  53.5088968  61.5396690  56.6320848  54.3297911  62.0202494  56.7388725
  53.7588596  60.6188011  56.7079401  37.9548335  68.6953449   9.1168326
  37.9944658  68.0369377   9.8104900  38.2242560  68.2272100   8.3265841
  56.1730719  65.0340939  15.0722301  55.2377319  64.8744774  14.9461555
  56.2102413  65.7702065  15.6829560  78.1986856  20.6303000   8.6328048
  78.9367199  21.1480999   8.3112097  77.6126194  21.2720323   9.0339726
  35.0862455  37.4507070  63.4424973  35.0924158  38.1277657  62.7658987
  35.3223896  37.9133844  64.2464876  22.1125793  75.4240227  44.8219967
  22.2259474  76.2892103  44.4285107  21.9136715  75.6030750  45.7410240
  50.6272507  69.1635609  15.3929329  50.5905867  69.9970531  14.9236977
  50.6087637  69.4085169  16.3180733  23.8313746  17.8074419  12.3385394
  23.2484722  18.5537779  12.1991098  23.2838917  17.1539891  12.7738476
  35.1847291  54.6110821  67.1139574  34.8174667  54.0693951  66.4154434
  34.9926329  55.5097818  66.8462467  26.1205220  50.4895353  62.5179577
  26.1526847  50.6559038  61.5758753  27.0152617  50.6466389  62.8196049
   3.0557308  15.2442348   9.3062097   3.0524337  16.0851467   9.7634715
   2.9613578  15.4739094   8.3817774  75.0679016   4.3660170  14.3577027
  74.8223591   3.7007979  13.7147224  75.9917593   4.5419416  14.1794443
  44.3469238  76.7349958  23.0990410  45.2710581  76.6586399  23.3364797
  44.0356445  77.4956846  23.5896420  79.0597057  27.4857664  22.8465390
  78.7143564  28.3162570  22.5190449  78.6277103  26.8193626  22.3121977
   3.3641556  10.3381431   8.4972221   3.1546026  10.1053250   9.4017196
   3.3194584   9.5095289   8.0201137  57.4938965  60.9061098  64.9383259
  58.0815506  61.2657309  64.2738199  58.0695534  60.4222727  65.5305672
   5.4171479  59.0704918  42.5198126   4.4977710  59.0177488  42.2586679
   5.8923936  58.6341715  41.8127108  53.3877516  21.2005925  25.3517699
  54.3062639  20.9426475  25.4294324  53.0569792  20.6892014  24.6133280
   4.6577755  25.8485103  11.7018151   5.3758979  25.2162313  11.6743422
   4.7810501  26.3152027  12.5283945  47.7202463  20.1042938   4.3055373
  47.7780724  20.5343890   3.4523636  46.8068695  20.2165270   4.5689252
  16.1976683  71.6430902  33.1042433  15.7404077  72.4133444  32.7668285
  15.5388808  70.9487772  33.0915070  77.4641418  62.1054268  21.0471153
  78.2690859  62.4686956  21.4163494  77.5767851  62.1872997  20.1001000
  59.4448280   1.4002833  63.6276150  58.5339022   1.1683402  63.8082981
  59.3929577   2.2469449  63.1840992  57.5047731  69.2022657  49.5992231
  57.0276308  68.9788914  48.8000584  58.1438875  69.8583412  49.3211365
  25.6150675  59.4651890  55.3810120  26.0779738  60.3029633  55.3900576
  25.2922702  59.3602324  56.2760115  10.8282590  10.3807807  17.4653947
  10.0703931  10.8153760  17.0742452  10.6276453  10.3451836  18.4006596
  16.5069044  52.9779530  45.7368326  15.6519842  52.5567007  45.6480169
  17.1116948  52.2574615  45.9138823   7.2920465   6.9651932   4.1707522
   7.4595213   7.8006589   3.7346548   6.4326072   7.0753843   4.5775130
  45.7922983  75.1935101   0.7835434  45.0206709  75.3416443   1.3302417
  46.5308571  75.4428768   1.3390452  19.9144971  42.9661989   8.7035203
  20.5062222  43.0351543   7.9542959  20.0079393  42.0608759   8.9999902
   1.4105424   9.2370546  12.9825985   1.6890524  10.0398564  12.5419474
   0.5086139   9.4118643  13.2512963  10.6417000   5.2033883  15.1934373
  10.6895590   6.1275566  15.4380882  11.3504899   5.0860542  14.5609176
   9.1265893  24.9087310   0.0720839   9.6577227  24.7597671  -0.7101814
   9.7638077  24.9988174   0.7806525  15.7620704  58.4711742  58.7558174
  15.1802444  58.3332729  58.0083609  16.1016953  59.3578482  58.6345911
  29.3901086  28.8222265  14.0323782  30.0196338  28.3082938  14.5381486
  29.1354966  29.5341349  14.6193957   4.1775692  63.2135057  56.8907356
   3.5654834  63.8976192  57.1619749   5.0385231  63.6288071  56.9408846
  39.7975206  66.1640835  65.9104395  39.3006253  66.3846016  65.1225948
  39.2655182  66.5010834  66.6312981  18.1204212  46.3905954  52.8286028
  17.7549112  47.2713470  52.7454853  18.9949334  46.5275908  53.1928730
  10.9833121  60.8717299  62.2629547  10.1204860  60.9770346  62.6637983
  10.8265042  60.9803200  61.3249493  31.1208940  43.9091682  60.9778500
  31.9171238  44.1698360  61.4407778  30.9121442  44.6583366  60.4198122
  19.4730556  21.2457538   2.8582382  18.9960146  21.9329548   2.3930301
  20.1481056  21.7135572   3.3498681  57.8414869  10.0792706  25.9290075
  58.3832741   9.3097234  26.1036396  57.0041847   9.7208756  25.6345415
   1.6636476   5.1225960  17.5686061   1.6280159   4.8621148  18.4889925
   1.2523153   5.9866667  17.5481319  15.8935535   0.7034122  30.4467130
  15.5323243   0.9181286  29.5866871  16.6241145   1.3117364  30.5583119
  15.5464315  53.4981775  61.7675495  15.7360244  53.0364847  60.9507704
  14.8753881  54.1383314  61.5306187   6.0375929   6.0898572   1.3554025
   6.0834795   5.2915424   1.8815388   6.5154529   5.8763188   0.5539769
   8.6726242  22.1951437   0.8592881   8.8474715  23.1334996   0.9310194
   9.4588512  21.7774463   1.2108675   0.6554868  36.2486593   0.1661529
   0.5203536  35.5475895  -0.4713927   0.4109600  35.8593218   1.0057106
  35.7011104  51.8185234  64.0310574  35.5261326  51.0089970  64.5109272
  34.8372626  52.2076607  63.8947773  77.7270412  18.5678887  19.3841672
  76.7811728  18.6000907  19.2408884  77.8836966  17.6994228  19.7549200
  12.7985692  28.6949778   4.1700599  12.9168308  28.2621336   3.3245474
  12.8965211  27.9935575   4.8139900   0.4516101  12.2604346   5.4143775
   1.1429321  12.2264254   6.0755497   0.6594385  11.5448880   4.8135173
  69.5159912  10.2408481  16.5463936  69.6825171  11.0438979  17.0399642
  69.6519470  10.4891634  15.6320155  45.3686428  72.1828032  22.7834582
  45.7118654  72.7688169  22.1089077  46.0770559  71.5588331  22.9417086
  31.8997812  61.7951202  55.6825686  31.7697430  62.7372646  55.5744791
  32.6627755  61.5948868  55.1403713  72.5829935   9.7584766  49.8847532
  71.6863680  10.0017631  50.1151943  73.1249952  10.4443920  50.2746058
  34.6073174  62.9704857  64.0525579  35.1515579  62.2286129  63.7886286
  35.1900792  63.7276316  63.9946556  12.5369167  35.6049156  21.6662335
  12.9345524  34.8383355  22.0791149  11.6030121  35.3986502  21.6274166
  78.1233311  35.2656698  63.2413483  77.5187206  35.9599018  62.9792070
  78.7055826  35.6823945  63.8766098  10.3906643  50.6844759   5.7755309
  10.7462990  51.2825632   5.1182276  10.5494630  49.8116636   5.4160613
  22.1359801   8.4700584   4.0943107  21.4326906   7.9604638   3.6919075
  22.4071264   9.0843904   3.4121758  38.8010263  60.1965523  60.9116125
  37.8785777  60.0434351  60.7069731  39.1621256  60.5840111  60.1142979
  25.5598855  15.5142856   2.5284347  26.4101195  15.5752397   2.0929846
  25.3698921  16.4094245   2.8092551  18.1613064  51.6625118   3.0783677
  18.8460529  51.5099382   2.4271573  18.1914937  52.6052618   3.2412827
  49.1052008  69.8240471  55.9970713  49.7608137  70.2526951  55.4469204
  48.2662821  70.1309109  55.6531477  55.1205635  72.5745773  35.4213786
  54.2600775  72.1933174  35.2469182  54.9329948  73.3746052  35.9122944
  60.4992056  44.9073362   0.7235801  60.3434372  45.2156019   1.6162950
  59.7008610  44.4331217   0.4912149  14.6480680  68.9634228  12.6079702
  15.5061913  69.3232107  12.8324866  14.0447211  69.3821526  13.2218683
  76.7943382  15.7670498  31.3888478  76.4213419  15.4470754  30.5674338
  76.3125277  15.2974153  32.0696807   4.5079505  35.8550525   0.9559315
   4.1782025  36.5932226   0.4434840   5.1446092  36.2448144   1.5550838
  68.5056543  71.9062853  49.5901442  68.0112457  72.6617718  49.9079943
  68.7252808  71.4138174  50.3810120  61.3052607  74.3021107  63.7038326
  62.0801258  73.9865541  64.1688442  60.7952738  73.5121727  63.5245657
  73.7775707   0.8126193  48.3237362  73.9934683  -0.0070081  47.8789568
  74.5696354   1.3441569  48.2441521  50.2065442  48.0962558  66.2913845
  50.5401895  48.8901098  66.7093666  50.9871123  47.5690277  66.1211594
  28.7999177  20.0546145   8.6100799  27.8834414  20.0310636   8.3348542
  29.2335105  19.4067168   8.0546880  64.3052053  63.5923958  56.9205618
  63.9237261  64.3724203  56.5177345  63.5530663  63.1017590  57.2519207
  26.0730314  16.8881059  29.8881388  25.7249832  17.7577925  30.0849581
  26.6878319  17.0332861  29.1689897  74.1986561  55.7354021  49.8754883
  73.4117842  56.2561560  50.0363541  74.3568850  55.8245564  48.9356756
  39.0176010  35.6648636   5.7428497  38.0892825  35.5837107   5.9616464
  39.4449353  34.9767947   6.2529278  40.2091694  67.1299458  48.5690784
  39.6111703  67.8231955  48.8484287  41.0779142  67.5288153  48.6182308
  15.6954777  16.2156284   7.7764130  15.6310523  15.4992867   8.4080261
  15.0633597  15.9906089   7.0937526  32.2257733  64.3465376  63.8048506
  33.0707002  63.9616919  63.5719967  31.6872668  63.6004114  64.0685558
  15.1749659  50.4564905   2.5421336  15.8813047  50.1696634   3.1209660
  14.5121574  49.7697067   2.6145497  15.5912948  49.9073219  22.6113462
  15.5458868  50.0788498  23.5519576  15.0662136  49.1168070  22.4864197
  15.1652443  59.3977499  55.9862375  15.2656901  59.7576714  55.1049900
  15.4976439  58.5026598  55.9187031  76.2898350   3.4253767  29.9077702
  75.5278444   4.0035632  29.8717356  76.4010429   3.1193203  29.0076613
  31.0598469  48.1346226  61.4101839  30.3163266  48.1059217  60.8080339
  31.7365646  47.6117039  60.9802532  63.0816650  15.6303978  10.3392744
  63.1594801  16.0312974  11.2049854  63.8736439  15.1005042  10.2486503
  45.1768875  76.2674999  20.4168129  44.7866297  76.7017698  21.1753249
  45.1798916  76.9370556  19.7327685  28.3511305  37.3986387  24.3178701
  29.1128635  36.8639684  24.5417523  27.6005054  36.8303180  24.4905138
  21.7554593   4.9270338   3.1761476  22.1658134   4.3935886   2.4955022
  21.0310245   5.3670400   2.7313748  33.1626105  70.7463503  53.0577469
  33.1265664  70.9204769  52.1172094  33.2081008  69.7924709  53.1231642
  76.2868643  67.8978920  46.3401604  77.1238470  68.3568859  46.4109612
  76.2073612  67.4163675  47.1636009  50.5696392  67.6583004  63.1101704
  51.4067841  67.2114038  63.2355022  50.3888559  67.5702000  62.1743345
  10.4023087  10.5043459  20.4407501  11.2376368  10.0384057  20.4776001
   9.7996640   9.9556780  20.9427619  51.5488148  13.7325060  57.7594328
  51.6208506  12.8041470  57.9812288  50.6783104  13.9853597  58.0668736
  70.3601789   3.3311239  44.1572380  70.4365349   3.7151021  45.0307131
  71.0001516   2.6193392  44.1517210  48.9345264  36.3801956   5.2154344
  49.4649315  37.0418262   4.7714233  48.2631016  36.8820620   5.6775528
  64.9218369  75.2269316  59.9396515  64.8300266  74.9139023  60.8395529
  64.4967031  76.0845375  59.9398327  73.0178499   7.4171156   1.2435434
  73.3333492   8.2382792   1.6208792  73.3073187   6.7437911   1.8592332
  23.3102369  12.3944557  -0.2135088  22.8005981  13.1362498   0.1124351
  24.0291739  12.3044777   0.4120061  60.1428413  12.9505789  46.7407560
  59.3728256  13.0493605  47.3007059  60.3000212  13.8282681  46.3926363
  42.6053524  13.1402969  50.4633093  41.9088984  12.6853549  49.9897957
  42.2862959  13.1950974  51.3641024  56.8490362   0.6620625   6.6054928
  56.6540098   1.4820261   6.1517787  57.3737764   0.9255607   7.3614359
  31.7484021  48.4809065   8.8446921  31.9924402  47.6528263   9.2581588
  31.7179894  49.1090965   9.5662791  75.7609797   2.2502054  66.3856077
  76.4476395   1.8314910  66.9046497  75.5770397   1.6259617  65.6836700
  63.6162376  15.5780888  51.7401457  63.7695885  14.6362102  51.6654491
  64.0713882  15.9553087  50.9873009  20.5171990   3.5847586  61.5396547
  19.8586071   2.9160950  61.7277479  20.0157118   4.3260992  61.2003088
  16.6090655  27.3083782   8.7789863  15.9326756  26.6362119   8.8621926
  17.2290432  26.9471574   8.1454414  73.0166960  67.0583773  46.5291595
  72.6111412  66.4938974  47.1872807  72.3552990  67.1383905  45.8418560
  32.6710296  13.8068390   0.9769354  32.0601010  14.0135574   0.2696406
  32.8059602  14.6401978   1.4280875  36.5541911  73.7917280  39.2965817
  36.1926436  73.8240337  38.4108758  36.0868859  73.0715561  39.7199130
   4.5605591   1.4187607  66.5567875   3.9167488   1.0016470  65.9842873
   4.9631798   0.6928208  67.0333815  52.3014164  65.2332592  63.3355188
  52.8870201  65.9017324  62.9799271  52.8780079  64.5007277  63.5527277
  22.0545912  17.4368346  16.1002910  21.2348080  17.3792505  15.6095028
  22.5950098  16.7298365  15.7476854  41.8328762  77.1028519  62.8544521
  41.3308430  76.3318062  63.1184292  42.4151182  76.7848539  62.1644497
  79.1375399  14.0917206  56.2818718  79.1811514  13.3794963  56.9198895
  78.5305119  13.7765646  55.6122208  14.6236408  15.3315699   3.4239995
  15.4030025  14.9817371   3.8557923  14.0845954  15.6690216   4.1393936
  58.0630398   2.4570601  58.3865595  57.4889183   2.2418271  59.1216040
  58.7834978   1.8304572  58.4539080  56.9548845  61.0640574  57.1779823
  57.2145605  60.7614946  56.3077736  56.6909313  60.2680540  57.6394320
  73.1747198   2.6829088  65.1358080  73.8694477   2.5372976  65.7779741
  72.4233484   2.2018544  65.4825926  71.7793036  18.2895076   2.5875309
  71.8595266  18.7185168   3.4394395  72.6343155  18.4135115   2.1754542
  22.2545028  19.8642933  11.2786961  21.3496685  20.1764035  11.2691176
  22.7830601  20.6622958  11.2857866   6.0591799  40.5928707  27.8515029
   6.9574714  40.5683756  28.1812072   5.5178726  40.3978348  28.6164713
  31.1423612  39.5504427  19.8450887  30.6009746  39.0392303  20.4465795
  31.8621016  39.8740768  20.3868151  58.7010956  64.0190554  65.9147596
  59.6020603  63.7869692  65.6897545  58.1816244  63.2677317  65.6285858
  69.7146082  75.9548187  66.0922337  69.9777699  76.7342663  65.6029034
  70.3568983  75.2892113  65.8459425  28.2518959  54.4778204  59.1936684
  28.9706779  55.0648737  59.4280910  27.5439930  55.0622988  58.9225721
  16.4991438  22.7815819  48.5543013  15.6349957  23.1779122  48.6656666
  16.3851464  21.8746948  48.8385344  65.6448460  15.1367569  63.8109970
  64.7311783  15.0704849  63.5334110  65.7277775  16.0275853  64.1512585
  81.3656235   1.0771061  35.7522726  80.6037521   1.6504650  35.6683707
  81.6568470   0.9324837  34.8519921  28.6911178  54.5062923  64.9869347
  28.4809875  53.8275909  65.6283712  29.6156764  54.7017908  65.1392508
   2.0560962  45.2737570   3.2050705   1.1282630  45.1857090   3.4232566
   2.3200950  44.3978262   2.9234904   4.9847555  54.1940928  61.0402727
   4.9076656  55.0547409  61.4520645   4.9561477  54.3746996  60.1007032
  30.8314824  46.4362049  19.5454001  31.0837483  46.5156507  20.4653358
  30.5170059  47.3083019  19.3071067  73.1889391  19.8252976  33.4779263
  73.6505556  20.3339291  32.8112674  73.6340141  20.0437880  34.2967081
  43.4894180  51.7424726   9.1028887  43.5733366  51.5359783  10.0337756
  42.9096651  51.0632706   8.7582082  38.0227375  62.6907349  64.8370647
  37.6803613  63.3764839  64.2636919  38.9733410  62.7935791  64.7922850
  20.5714273  52.3733616  58.6422682  21.3753653  52.2479963  59.1464472
  20.8507299  52.3179340  57.7284050   4.7709182  43.1194592   4.1585821
   5.5851287  43.2031488   3.6623079   4.2127869  42.5666809   3.6116281
  46.5214872  70.1117229  50.3198385  45.7283258  69.8968554  49.8289585
  46.4113045  71.0310793  50.5624866  16.6230834  64.2611313  21.3182926
  16.7371523  64.9186993  22.0044589  15.7877958  64.4853830  20.9081268
  31.3705492  77.0519066  60.2104187  31.9876170  77.7810240  60.2724409
  31.5162230  76.6884804  59.3369579  15.3179729  63.3345652  53.1014109
  15.9477150  64.0503168  53.1871462  15.4012930  63.0499649  52.1913052
  59.4097233  17.9401743  51.6174030  58.7151098  18.5786486  51.7789364
  60.0047684  18.3817661  51.0114765  59.0575790  61.2753487  62.5794554
  59.0589523  60.8117485  61.7420149  59.8398876  60.9576845  63.0303574
  77.4260378   5.1116180  50.4615498  77.8271341   4.4063720  49.9536276
  76.7859602   5.5014926  49.8661280  33.5334039  53.0888939  65.5339909
  33.1409931  52.7994871  64.7102880  33.4182405  52.3470545  66.1278296
  28.2160664  29.7503948   3.1543627  27.9526734  29.9003386   4.0623128
  27.4292421  29.4080973   2.7301329  23.0754876  50.0316381   6.2761116
  22.4216318  50.3189135   5.6387919  23.4457135  50.8437252   6.6220582
   7.3284221  18.3719575   2.6226616   6.9813573  19.1297174   3.0933833
   6.7317092  17.6575315   2.8457326   2.8484511   0.6571737  15.0027180
   2.1973893   1.3543814  15.0817859   3.4584349   0.9735303  14.3363321
   6.3294894  10.0487721  54.5619869   5.4028022   9.8696721  54.4025946
   6.7911154   9.5181990  53.9126587  24.6705556  27.2105932   3.4835234
  25.5616164  27.1539879   3.1385008  24.3536258  28.0645657   3.1893826
   4.2941788   5.1910174  50.5260038   4.7953156   4.4433081  50.2003908
   3.3925030   4.8731136  50.5723715  37.8266573  54.9186802  66.5466118
  36.9747448  54.5659399  66.8036127  38.1548190  54.3003893  65.8937263
  58.5496330  35.8350253  14.1088772  57.6216125  35.6917739  13.9231515
  58.8019323  36.5532684  13.5286152  12.4413681  18.3909464   3.6522567
  12.1096826  18.3898163   4.5501515  11.7420053  17.9875422   3.1380704
  75.9410810  68.4226465  14.9627519  76.4469576  67.9532290  15.6260538
  76.1466455  69.3453074  15.1133049  13.7752020  33.6748958   7.9910427
  13.6885989  34.5919442   8.2513380  12.9303169  33.4567976   7.5975531
  26.8183327   8.3299226   9.8343801  26.7446446   9.2831665   9.7882545
  27.5856829   8.1229222   9.3009412  27.7163839  39.3787408   5.1403475
  28.2754040  40.1524925   5.0693548  27.7465010  39.1458225   6.0682875
  66.6506433  77.0049191  51.9673109  65.8334303  76.5139866  52.0532131
  66.6776371  77.5629711  52.7445412  24.5613956  63.7097454  54.3700933
  25.4926205  63.7153530  54.1486883  24.1206980  63.9610052  53.5583782
  37.5550580  56.9873476  63.5680628  38.2912993  56.4871073  63.9201212
  37.3528409  56.5616703  62.7349138   3.3171427  10.8887148  53.2966137
   4.0532315  11.0796273  52.7152729   3.1471205  11.7158639  53.7473345
  17.4004996  10.6036007  58.2429790  16.7550993  11.3009965  58.1275272
  16.8783295   9.8062587  58.3313847  56.8456793   6.4910102  56.6925716
  57.1880770   5.6179547  56.5008163  57.5845194   7.0783532  56.5332747
  36.3881445  27.7168059   1.0820507  36.3659906  28.6196113   0.7647438
  35.9234166  27.7454019   1.9183773  73.0465126  17.2652435  48.6777782
  72.7342606  17.0346439  49.5527411  73.1951714  18.2099819  48.7177992
  15.3278220  33.2473707   2.6093158  15.5510449  34.0339637   2.1116443
  14.5621419  33.4996963   3.1253567  24.4104433  38.8724971   8.7538898
  25.1203489  39.1425371   9.3364203  23.8813663  38.2748055   9.2821652
  52.7525949  67.4406052  39.5621777  53.5709238  66.9441891  39.5503497
  52.8243732  68.0384874  38.8181233  47.2669649  24.8753810  16.4125252
  47.9771233  24.7748256  15.7786477  46.7137671  25.5647230  16.0450852
  45.9834576  52.5669193  65.4057646  46.6257763  53.2660818  65.2839899
  46.2665892  52.1176052  66.2021208  41.0023928  67.5403976  59.4742537
  41.0316992  66.7158794  58.9889288  41.8231344  67.9792595  59.2506075
  34.6629071  71.6962719  55.1459789  34.6450973  70.8421516  55.5777168
  34.1867375  71.5605354  54.3267918  56.5315199  55.8761692  54.3104267
  57.4468231  55.8297873  54.0342045  56.4418268  55.1791000  54.9602556
  38.1003499  20.1431227   6.9464803  38.7783527  19.6860087   6.4488983
  38.1829596  21.0584474   6.6789132  23.1225371  76.6782379  54.3670273
  23.9436698  76.1864805  54.3550539  22.8519940  76.6703463  55.2851629
  34.9251914  37.2241545   4.8886231  35.1972795  36.4963484   5.4476386
  35.1366544  36.9361424   4.0006110  35.6574154   2.5950718   1.6525517
  36.1545992   3.3808509   1.8796894  35.8209014   2.4700856   0.7177348
  66.7689753  11.3976467  54.1299725  66.0106039  11.9742620  54.2227983
  67.5062466  11.9920874  53.9910316  66.3021994  11.4048672  35.4738808
  66.9113779  11.4414728  36.2113047  65.4404068  11.3103271  35.8795977
  48.7650299  74.9129248  51.8415117  49.1050386  75.5464554  52.4733877
  47.9681778  75.3189659  51.5003586  21.5859890  37.1072221  17.2626710
  21.5491652  37.9108047  17.7814507  21.8777466  36.4366055  17.8802323
  67.0841217  76.1275053  56.2011385  67.0691824  75.1705217  56.2150431
  66.3381290  76.3865757  56.7420673  36.3833737  59.2550325  56.7070246
  36.8551183  60.0764799  56.8445206  36.8621898  58.6131859  57.2314262
  74.0554857  39.5472264   5.4119456  73.5994625  40.3465843   5.6751984
  73.6683226  39.3177652   4.5671484   1.4718883  26.4650941  26.2565684
   1.4067051  25.5914688  25.8708715   0.7515185  26.5035057  26.8857121
  50.1088619  24.9005818  65.1191902  49.5978260  25.4651809  64.5392752
  49.6192741  24.8962045  65.9416962  58.7379217  48.9031792  57.2190523
  59.6117067  48.5150146  57.2644186  58.2458782  48.3187819  56.6423368
  43.4423637  68.0347157  64.6091604  42.7751303  68.0864286  63.9247942
  44.0020514  67.3051071  64.3433523  52.4218464  61.9418669  63.5271788
  52.0141268  61.0758591  63.5324144  53.3347273  61.7782450  63.7640524
  77.5715971  70.4146862  53.0809212  76.8271494  69.8130083  53.0847740
  77.2156954  71.2382078  53.4146452  21.2590027  10.9517241   6.7647755
  20.5682707  10.4330158   7.1771646  20.8870387  11.8306327   6.6913241
  54.0968466  67.0114470  62.3914719  54.2010593  67.4650002  61.5550137
  54.8647022  66.4432621  62.4531317  28.1092906  11.2168312   5.1998705
  27.2821093  11.5538752   4.8557717  28.6402059  11.9980359   5.3550464
  20.0811481  41.1200571   3.0245128  20.4949951  41.8031979   3.5520354
  20.8070493  40.7032108   2.5602564  77.2356749   9.5527476  57.3307085
  77.0833445   8.8318628  56.7196846  76.7433977  10.2866137  56.9628286
  62.3657990  69.1766644  60.3631687  62.9745340  69.2971420  59.6343613
  62.4863625  69.9550152  60.9071064  19.1516721  35.5792069   7.7135628
  19.3495786  34.7625446   7.2551662  19.9965286  36.0229778   7.7878481
  51.5011644  41.8744087  66.5713930  52.1284723  42.5566244  66.8107796
  51.2275505  42.1017694  65.6827545   6.9039041   2.6650000  41.6843224
   6.3235694   3.2205656  41.1639452   6.6004139   1.7737290  41.5118027
  60.5130148  15.7460415  59.9615622  59.8870420  15.0463700  60.1482487
  60.1433420  16.5185308  60.3891563  75.9784031  15.2156055  46.9672537
  75.8259392  16.1569798  46.8847942  76.7742348  15.0565064  46.4597368
  23.0670714  27.3240781   7.3824507  22.9474592  28.1417036   6.8993247
  23.9557433  27.3811221   7.7335072  60.7022762   1.9621094  59.5868397
  61.3254642   2.2873904  58.9371777  61.1631155   2.0423272  60.4219580
  28.0091834  12.4929285  16.8888068  28.0053163  13.4433162  17.0027363
  28.6367178  12.3389089  16.1826134   5.7575721   1.8525702   3.1182492
   5.0869489   1.9086879   3.7989452   5.8117282   0.9194855   2.9117259
   2.3343316  20.2167058  44.2060518   1.5182878  20.5574441  43.8397169
   2.9359165  20.1848912  43.4622002  30.9535551  44.3524599   5.1279426
  31.6045213  45.0453138   5.2394211  30.7538366  44.0658236   6.0191131
  46.9617367  69.8293829  15.5122483  47.4856138  69.8846579  14.7130442
  47.5632000  69.4786692  16.1691141  47.2596264  75.6408453  62.1183014
  46.4712620  75.2545738  62.4997568  47.3596430  75.1980495  61.2755919
   9.9064124  15.0002897  43.6122513  10.0525153  15.6292856  42.9056787
  10.1694536  14.1580069  43.2413101  69.8218632   6.6166806  31.4647627
  70.6470346   7.0428181  31.6965508  69.2242622   7.3396611  31.2739587
  16.8334532  57.2261858  14.6180272  16.9581974  57.9602289  15.2195668
  17.2941792  57.4886322  13.8211048  29.0025973  26.8664336   7.6409358
  28.1909275  26.7687798   7.1430504  29.3842149  27.6831436   7.3190916
  54.2466450   0.8435491  50.5206108  54.4399643   0.5116180  51.3973570
  54.7848797   0.3080563  49.9377060  41.0368347  75.2205849  56.9107437
  41.6057587  74.6485901  57.4258900  41.1135721  74.8912477  56.0152674
  62.7730846  35.8956075  65.8515406  62.1791553  35.1466012  65.9012270
  63.5287905  35.6374598  66.3792753   7.5336629   2.5769898  61.0149765
   8.0736315   1.8050721  60.8452415   7.4129891   2.9787609  60.1546001
  13.0646682  10.8157682  32.1819043  13.5578704  11.0781217  32.9591775
  13.3754861   9.9313956  31.9882298   7.1205294  12.9946566  63.8261557
   7.2692251  13.1959105  64.7500706   7.0169008  12.0433915  63.8019085
   2.1044597  16.6217136  55.1630878   1.6708261  16.5569007  56.0139608
   2.9583660  16.2106097  55.2975082  65.7823467  72.6480198  62.6246500
  65.5741501  72.2277546  63.4590769  66.3887930  73.3516598  62.8556061
  75.3654814  25.3240657  51.3785744  75.0794983  25.3351426  52.2919846
  74.6336508  24.9307585  50.9032154   6.0032505   4.6527392  29.3302917
   6.1713123   3.9804047  28.6700225   5.7096320   4.1647828  30.0996542
  42.2252417  54.0240479  14.5432985  41.5701532  54.7216558  14.5224488
  41.9430780  53.4101772  13.8652289  17.2157645  38.8875413   3.4993088
  17.9937530  38.6086559   3.9822054  16.5009344  38.3793569   3.8827112
  59.0410280  67.0244455  61.2149239  58.2480335  66.6733265  61.6200209
  58.7434578  67.7991772  60.7379770  19.4655693   5.9678078  51.7851686
  19.2181075   5.6204098  50.9282494  18.6592889   6.3515353  52.1299839
  48.5321951  64.8677015  49.3160677  48.6345625  64.0868521  48.7719774
  47.7292538  65.2789831  48.9961147  60.7092237  70.9617138  39.5693421
  60.3031397  70.6367159  38.7657857  61.6281605  71.0944319  39.3365836
  47.3609257  69.1879416  41.4813852  47.0989990  68.9188480  42.3618507
  47.5886917  70.1132631  41.5715647  36.2574816   5.8501184  63.0590868
  37.1042395   5.5728078  63.4088421  36.0486102   6.6492248  63.5428524
  80.4908848  13.7487435  52.7228355  80.2236557  14.6510684  52.5478125
  80.8368587  13.4350598  51.8872881  44.9343967  63.6230803  20.9821415
  44.7521639  62.8916121  20.3922462  45.6459999  64.1019154  20.5572033
  44.3104553  63.5812807  46.5969324  44.0504026  62.6601028  46.6029167
  43.7451553  63.9854717  45.9386778  35.9621072  22.3558784   5.8037448
  36.2692499  22.4006867   6.7092216  35.1589417  21.8370938   5.8486617
  76.5406704   7.7672380  39.2289996  77.2118521   7.2381508  38.7979412
  75.9806681   7.1295154  39.6716499   0.5134651  69.2955160  63.1448555
   0.1727172  69.1600800  62.2606754   0.7619354  68.4203434  63.4424543
  61.6108751  73.0402946  54.5306444  60.8218098  73.4946108  54.8259497
  61.4323473  72.1153164  54.7002935  34.1360307   0.5741054  29.7806740
  34.5828056  -0.2510342  29.9698019  34.3948412   1.1558938  30.4953575
  36.1635208  14.9561274  18.5695994  36.9858313  15.1730204  18.1302881
  36.2962651  15.2324831  19.4763732  24.1529679  42.5427961   0.4183156
  23.9120483  43.2959557   0.9577033  23.4917450  42.5223303  -0.2734912
  23.0870748  16.1630595  38.4543133  22.5338483  16.9191754  38.6504221
  23.5312033  16.3962483  37.6390791  70.2966642  75.4376841  45.8118534
  69.7516680  74.7600174  45.4118776  70.5354214  75.0793934  46.6667557
  16.1250472  15.9489560  36.3562536  17.0500302  16.0567296  36.1348367
  16.0499871  16.2938607  37.2459936  21.7826986   9.0516561  60.9587574
  21.9349170   8.9115536  60.0241804  22.6237202   8.8536799  61.3707256
  45.7884264  20.3785205  66.6538095  45.1307869  21.0202050  66.3855124
  45.8753157  19.7950923  65.8999586  69.4614077  64.4575644  66.0987282
  69.1885424  64.5502901  67.0115137  70.4020023  64.6346807  66.1107492
  67.6456833  37.7670884  13.0369914  67.4542141  38.2322335  12.2226143
  68.5294151  38.0497932  13.2722092  26.5984082   9.8573637  49.8829508
  27.3152423  10.1935792  49.3450451  26.7489791  10.2384484  50.7480145
  12.9266381  13.6007488  57.9187918  13.5256934  14.2743790  58.2406425
  12.0663261  13.8728511  58.2382536  34.2521811  19.1328871  46.0458422
  34.0123343  18.5809159  45.3015089  34.7113657  18.5427928  46.6434813
  42.1579361  72.8291893  31.3085198  42.2098589  71.9397593  30.9585977
  41.8881607  73.3647299  30.5624294  16.9139385  10.5894697  36.5745544
  17.8127182  10.9025562  36.4725518  16.9538033   9.9839389  37.3148060
  55.6160259  76.3791418  44.6172762  54.7047997  76.6458464  44.4957590
  56.0540915  77.1650457  44.9439001  60.5093908  17.4556994  47.0819807
  59.9085951  17.1327770  47.7535439  60.9360600  18.2114637  47.4857187
  73.9351606  23.6833763  44.1038370  74.0258455  22.9996514  44.7675610
  73.3526039  23.3031654  43.4463453   7.6990324  13.0681193  59.2199564
   8.0867070  12.2991002  59.6377468   7.2934341  13.5524571  59.9390793
  19.9751770   6.1135924  24.5785236  19.9722254   5.5004466  23.8434911
  20.1329350   6.9680703  24.1770124  16.5040934  17.4709439  54.1293573
  16.9325745  17.6365221  53.2895851  15.6265295  17.1689296  53.8950491
   0.4507351  75.4398012  43.1815052   1.1714963  75.5018902  43.8083076
   0.8242059  75.7478762  42.3557711  19.5110512  14.9898648  33.0200815
  20.1917195  15.0450349  32.3493528  18.9399862  15.7375705  32.8438663
  68.9753056  71.8659735  58.5742140  69.6048689  72.3933458  58.0825138
  69.4615221  71.0784292  58.8183308  20.0981617  13.8452590  55.4893732
  20.8841491  14.1285527  55.0222588  20.3506064  13.0207312  55.9048939
  40.9044218   0.1996903  45.9097242  41.6431856  -0.2143542  45.4635954
  40.2362823   0.2929447  45.2306604  30.3440571  16.3785064  45.8302593
  31.2530279  16.4778459  45.5471754  29.8433852  16.3309979  45.0158262
  80.8632278  16.9233108  18.4709394  81.2184620  17.3882544  19.2284787
  80.2359486  16.3033497  18.8429618  17.2815514   7.3725855  32.5587201
  18.0746090   7.0879579  32.1045423  17.2635067   8.3218557  32.4370980
   1.5134351  18.2269323  62.3053885   1.9606553  18.7048745  63.0038118
   1.9322602  17.3662579  62.2979212  74.5269632  12.0184660  59.1089487
  74.1911983  11.1882603  58.7709379  74.4219780  12.6328480  58.3824873
  39.2070079  18.4332621  61.6370773  38.9621067  17.5492120  61.9104099
  38.4449720  18.9705884  61.8534470  40.4962492  14.2384946  40.6480503
  39.8624039  14.9254167  40.4416227  40.7354116  13.8698769  39.7976685
  42.4433661  34.0458250  66.2063313  42.1482897  34.2815304  65.3267860
  41.6356325  33.9221931  66.7048407  26.7839336   5.6951940  42.0268679
  26.8333912   6.6401571  41.8825388  26.0153866   5.4167384  41.5288401
  41.0695124   6.1427134  47.7761841  41.6350317   5.7789588  47.0949316
  40.4190111   6.6570312  47.2981024  24.2926311  12.6412582  40.7552910
  24.2229700  12.4611437  41.6928053  24.8472977  11.9383466  40.4169178
  27.0625663  18.4714448  41.8844986  26.2216473  18.5600615  42.3330927
  27.2327638  19.3403602  41.5208340  21.9981098  18.7017143  64.5520687
  21.9150782  19.5439243  64.1048336  22.2566652  18.9292467  65.4451609
  27.6818633  52.9426146   3.7766320  27.9064822  53.5577154   3.0784714
  28.5063219  52.7946281   4.2398801  53.5141182  15.9279263  42.9426050
  53.2927847  15.6195629  42.0638800  54.2989492  16.4616621  42.8185225
  54.8951530  35.6217575   2.8267199  55.4893112  36.3377452   2.6018375
  54.8193932  35.1112270   2.0205855  37.8756714  50.1942778   1.5864639
  38.8197660  50.2456522   1.4372143  37.7819538  50.2203465   2.5387082
  69.2706633  24.6319938  39.1115475  69.3804216  25.3902030  39.6853948
  70.1307583  24.5091486  38.7098360  26.1080670  15.7247245  33.9055109
  26.1384988  16.1152148  33.0321145  27.0186639  15.5036688  34.1008997
  25.4003811  21.1729908  36.0511756  25.1854467  20.3699088  35.5767345
  26.3287663  21.0829759  36.2661839  77.7247286  14.7639418  65.2688694
  77.1825171  15.0740147  64.5435476  78.5174799  15.2982271  65.2207375
  11.3926673  17.4813378  51.9571161  10.7527840  17.1515822  52.5880241
  11.3951027  16.8299544  51.2557411  18.0553281  31.1118627  51.8175697
  18.8970923  30.7726431  52.1218586  17.4299324  30.8374166  52.4882317
  12.6619220  18.1286347  42.5681257  11.9874763  18.5039628  43.1342363
  12.5232029  17.1832299  42.6246834  35.7310343  32.9277062  55.8162880
  34.9169302  33.4297132  55.7781172  35.7262969  32.5295234  56.6867256
  18.6550757  20.5261745  66.7433376  18.7470910  19.6127214  66.4724716
  19.3741271  20.6669416  67.3592812  33.9179897  11.9120312  56.3827896
  34.6835494  11.3748634  56.1788273  33.2435489  11.6083181  55.7752371
   3.8718897  21.1853623  56.7318487   3.8067341  22.0982003  56.4512920
   2.9896411  20.8341789  56.6112709  16.3224578  18.4784198  32.4400163
  15.4807651  18.3003592  32.0203972  16.7558932  17.6258564  32.4787402
  73.9629698  69.9074364  57.7000332  74.6577215  69.2720032  57.8725767
  74.3850899  70.5870533  57.1745110  73.2413673  74.7858763  37.1889448
  73.2506800  75.1273680  36.2947798  72.3277473  74.5463276  37.3443413
  54.3716002  46.5026188   1.1850110  54.6042442  46.8362522   0.3185260
  53.8380194  47.1959829   1.5733080  14.2402709  73.5483694  63.3968687
  14.3589365  74.2328262  64.0554094  13.4165859  73.1244230  63.6377907
  27.7950907  22.4317479  51.2022161  27.9185534  22.4246430  52.1513939
  28.6744642  22.3068786  50.8453608  61.5961409  62.5923395  55.9986448
  60.9694433  63.2814121  56.2192297  62.1398783  62.9746389  55.3098536
  20.6210089  23.4050369  24.2060637  21.1869907  22.6699567  23.9703679
  19.7677994  23.0056286  24.3755865  25.3006577   6.2439138  63.1001997
  25.2483201   7.1988308  63.0598736  24.3953490   5.9499401  62.9990578
  68.7379980  75.3157854  61.8902302  68.1923914  75.0676775  61.1439133
  68.4680033  76.2104559  62.0973730  17.9409051  72.3771286  44.4806337
  18.1654143  71.7946482  43.7549973  18.7802243  72.7371550  44.7672653
  11.4483905  18.0239439  32.1942353  12.0598197  18.2825637  31.5046668
  11.7815816  17.1827483  32.5066519  46.1966133   4.7970495  55.4988718
  46.6130829   4.3657428  54.7527122  45.4190207   4.2682907  55.6777573
  65.9945679  51.8032932  13.2399380  66.2715483  52.5757408  12.7471530
  66.2061691  52.0112038  14.1500092  17.2913420  15.1124847  49.2978144
  18.1916380  15.0859869  48.9737844  16.7981923  14.5736074  48.6792326
  72.1998882  28.7992334  16.8294394  71.7631102  28.8337970  17.6804757
  72.5529337  29.6802664  16.7054605  80.2894688  30.3819823  37.3447490
  80.0007153  31.1980152  37.7533293  81.1571884  30.2222300  37.7159429
  22.2236586  14.4786870  59.9355602  22.2261620  13.5215986  59.9499416
  21.7807627  14.7047770  59.1176605  60.7504225  76.7769814  33.3753967
  61.1247206  76.9862556  34.2311645  60.1551104  76.0471821  33.5463428
  20.8035135  57.2084522   4.9612269  19.9104214  56.9094849   5.1322168
  20.8142138  58.1164646   5.2639222   9.3244350  27.0608115  51.3836241
   9.4365972  27.1289039  50.4354620   9.9987113  26.4404488  51.6606331
  51.9838476  11.0000837  58.2273436  51.6640663  11.0811794  59.1258955
  52.5765657  10.2488470  58.2509375  37.3689342  75.8939791  48.6270666
  36.9226789  76.2356997  47.8522682  36.8321872  75.1516533  48.9047098
  22.7428150   0.6398561  23.3987427  22.9865050  -0.2422051  23.6794806
  21.7998695   0.5893992  23.2420897  10.8784497  69.7637463  50.2467060
  10.1298273  70.3599405  50.2652359  10.6230521  69.0776825  49.6300030
  28.7852120   8.5434860  32.0821476  28.2744551   7.8125000  32.4300241
  29.0514565   8.2555425  31.2089729  17.9348433   7.5693458  56.4402246
  17.0980585   7.8758639  56.0908413  18.2617450   6.9597095  55.7786274
  60.5528879  75.0624704  45.0909519  61.3587379  74.9074078  45.5836916
  60.7625484  74.7909546  44.1973352  50.1925182  73.8231277  28.1882548
  51.1106157  73.9843273  27.9706788  49.8169374  73.4583950  27.3869181
  12.8992689  21.3701653  41.1506128  13.2690740  21.7781067  41.9335938
  12.9933965  22.0340180  40.4674768  19.1622078  16.2482977  54.3761253
  19.3089139  15.4398346  54.8671389  18.2645929  16.5005219  54.5926952
  61.1815691  34.6179104   9.3254143  61.1592197  35.5308533   9.0385920
  60.2694654  34.4072223   9.5251912  10.0840545   4.5868599  21.3634825
  10.3773081   4.2756420  20.5071092  10.8886588   4.6763119  21.8742108
  22.0529580   7.6669818  41.6209793  21.3261032   8.2231021  41.3405418
  21.7056060   6.7763424  41.5725994  12.0767224  11.2806046  36.5233493
  12.7654171  10.6308961  36.3826013  11.7110789  11.0602903  37.3800850
  34.1765904   5.5865830  47.4711990  34.0769076   6.4415431  47.0524645
  33.3548141   5.4540855  47.9438066  19.5089424  48.5654593   3.6953911
  18.6613452  48.3179283   3.3258781  20.1283097  47.9454136   3.3104712
  16.6309571  70.4656601  59.8470497  15.9049058  69.8431778  59.8070431
  16.5936017  70.9312296  59.0115404  25.6515002  66.0144901  42.9417086
  25.2635384  65.1991177  43.2593346  25.0409245  66.3258982  42.2735405
   6.6392344  23.3516598  50.9164619   6.3673323  22.4897313  51.2317133
   5.8280587  23.8580513  50.8741188  54.8555374  13.4420991  39.2751646
  54.8335791  12.6283479  39.7787118  54.4552469  13.2152379  38.4358001
   2.1290183  26.4771795  58.0386066   1.7001075  25.8997703  58.6701632
   2.0417403  26.0226369  57.2007513  25.6589198  19.9814737  60.2877045
  24.8260403  19.5145273  60.3548288  26.3098359  19.3576527  60.6092405
   5.7053232  61.1958361  64.2684078   5.5741000  60.9223795  63.3605337
   4.8208091  61.2674475  64.6272087  80.6442261  32.6266909  44.5059967
  79.9548197  33.2123852  44.1930771  81.3064003  33.2115197  44.8744202
   1.3362819  76.4129972  55.4342461   2.1085259  76.2195921  55.9657192
   0.6012338  76.3344240  56.0423231  29.5604062  56.7009974   0.6983855
  29.1242003  55.9524918   1.1054460  29.8899269  56.3625050  -0.1341251
   5.1927000  14.6507609  53.3361101   5.6849062  13.8502789  53.5183001
   4.2775783  14.3705916  53.3190870  64.2431688   7.4137920  45.1701736
  63.5371256   6.7862952  45.0153065  65.0230837   6.9900495  44.8118401
  44.2647552  20.6995988  52.9632187  44.1321230  20.1604605  52.1834946
  45.1533031  20.4900599  53.2509851  56.0744667  21.3008809  58.8682604
  55.4434919  21.2923884  58.1485176  56.9168234  21.4701366  58.4463310
  78.2670355  73.7416220  57.6067066  78.7843990  73.5600948  56.8220901
  78.8789177  73.6145878  58.3317566  52.8757095  51.1034870   6.6939288
  52.3007679  51.4342403   7.3840582  53.5581160  51.7695761   6.6110086
  41.9263458  76.4229584  16.4220357  41.2152719  75.8214951  16.6430545
  42.4357033  75.9580231  15.7582438  17.7701497  13.1946087  54.4181633
  18.6490369  13.3424640  54.7673464  17.7719271  13.6374962  53.5695887
  23.9723039   9.2119032  53.0198765  24.6557069   9.1081238  52.3577404
  23.2829142   9.7067380  52.5770283  46.4204597  18.8708770  58.1917667
  46.6318798  18.2732308  58.9089489  46.4083338  18.3151054  57.4125338
   6.0519457  75.1866007  43.5616970   6.3648653  74.3350077  43.2565594
   6.1545801  75.1527405  44.5127726  15.8594525   8.3755261  58.7935591
  15.0879455   8.1608468  59.3178892  15.5602956   8.3045757  57.8870821
  20.6432152  14.3022871  51.1084318  20.3802299  15.2221036  51.1401701
  19.9961400  13.8493752  51.6491699  28.1460190  21.6691113  37.4309230
  29.0224648  21.8001962  37.0691323  28.1664562  22.1172595  38.2764864
  27.0899653  25.5266833  32.1444225  26.2611055  25.7108712  31.7024970
  27.0350313  24.6006179  32.3802614   7.1187073  15.2086055  23.1216812
   7.5668514  15.0273359  23.9478421   6.1895806  15.2230501  23.3513474
  18.3778536   1.7040761  61.3678026  17.9534554   0.9759280  61.8215847
  18.8251221   1.2961555  60.6263304  25.0570989  22.0364928  38.7545252
  24.7478032  21.8283868  37.8729033  25.2888632  21.1885738  39.1334105
  14.6701062  25.0103140  47.9372787  14.3395126  25.6781435  48.5380650
  15.5139267  25.3513956  47.6408625   3.8256845  12.3370314  56.8810892
   2.9704684  12.2544992  56.4591599   3.7475190  13.1170869  57.4303055
  14.7400284  76.9562531  53.3102369  14.4879186  77.3726082  52.4860287
  15.6783342  77.1285868  53.3884382  25.1910782  19.5082629  39.4777679
  26.0312557  19.3650198  39.0420914  25.3124619  19.1483796  40.3563929
  26.5129137  50.5956650   2.2263199  26.6416574  51.2629938   2.9003569
  25.7746005  50.0750351   2.5426587  48.4501886   6.7416358  54.7838736
  47.5540209   6.9220841  54.5000505  48.4257364   5.8360988  55.0931263
  31.0209870  12.2655201  50.0003052  31.5828323  12.9920888  49.7307491
  31.4120150  11.9498396  50.8149672  18.7830138   7.6780593  41.7547655
  18.0055773   7.2137547  41.4445305  18.8492656   7.4425668  42.6801777
  50.8362579  65.0376368   2.6995504  51.3808823  65.2494001   1.9414148
  51.1404943  64.1742802   2.9793549  81.6185573   0.1925499  20.1344347
  81.5349153   1.1438257  20.0687909  80.9206298  -0.1484173  19.5750904
  16.6889143   6.1785412  41.0783577  16.2120628   5.8484530  40.3168583
  16.0496497   6.1539745  41.7903757  41.6562414  60.3215218   4.7857687
  41.2621689  60.3734922   5.6565362  42.4987507  60.7665443   4.8772067
  12.0293665   1.2286983   1.1403853  12.6752281   0.8149669   1.7130278
  11.1959779   1.1138687   1.5970141  41.2846756  13.0510223  52.8501892
  40.3766012  13.3407044  52.9380226  41.2957382  12.1763945  53.2389498
  27.0160222  62.6243067  53.6581659  27.3297071  62.3874617  54.5309401
  27.4562001  63.4512711  53.4616947  16.2633705  75.6997395  63.7231684
  16.7993224  75.9654951  62.9759312  16.4600384  74.7703362  63.8404894
  70.2467728  18.7834823  61.7886734  70.8055496  18.1946373  61.2814617
  69.5677471  19.0589511  61.1728191  46.8110275  75.7873154  46.5820122
  45.9917450  75.6001377  46.1237860  47.4711752  75.2806711  46.1089849
  21.8927932  46.8557358  31.3213992  22.3624158  47.6777458  31.1800456
  21.5396118  46.9310474  32.2078657  73.7446404  46.5685272   0.6567920
  73.5730648  45.7504320   0.1904087  74.6571445  46.4976215   0.9370404
  47.0318079  54.5742035   3.6026078  46.9271231  55.5126047   3.7597021
  47.1025562  54.1913986   4.4770703  33.8756180  20.4838157  53.7684774
  33.2186651  20.9754586  53.2755995  33.4072661  19.7130215  54.0890312
  18.6413503  17.0675063  41.3483334  18.4686625  17.3634565  42.2421074
  19.2077291  16.3031709  41.4543486  21.0673714  18.2075667  54.2276859
  20.5274844  17.4269414  54.1036797  21.8051648  18.0859172  53.6301136
  37.9099417  46.3439512  31.1486006  37.8567600  45.6007910  31.7495275
  38.7074304  46.8053055  31.4082122  60.3012371  14.2052341  40.5466557
  60.6233358  14.6228492  39.7478533  59.4524860  13.8381279  40.2995014
  12.6037109  19.8199725  29.2295766  12.6835084  20.2695465  28.3882999
  12.6385975  20.5212331  29.8801517  11.9711566  35.9088778  39.7414684
  12.1341896  34.9701691  39.6494055  12.1726608  36.2726593  38.8793254
  52.8420639  43.6202621   3.0666995  52.7138710  44.4547701   3.5176948
  53.3573484  43.8436031   2.2915636  55.1376295  55.3732920   7.5906813
  54.7658157  55.6809664   6.7640454  54.3774700  55.2081108   8.1484520
  15.5307221  37.0106864  62.2250175  14.8312044  36.4688873  62.5902033
  15.8968067  37.4704337  62.9805565  79.6526241  16.7463827  58.9117241
  78.9077854  16.7399800  58.3105516  79.2841482  17.0354211  59.7465372
  59.4955587  60.7027960   7.2931731  59.8064137  61.4582443   6.7942721
  59.4759750  59.9875069   6.6573977   7.9813385  20.5332351  48.1822491
   7.1787500  20.3254414  47.7038097   7.8230369  20.2077103  49.0683651
  13.4908485  18.8601720  22.9612303  14.3958306  19.0207708  22.6939368
  13.0295873  18.6716402  22.1439624  69.0380144  76.4544630  35.2562785
  69.3034315  77.3585939  35.0879312  68.6516762  76.1606932  34.4312501
  13.4944451  18.7191284  39.9891758  13.4063137  19.6687031  39.9068785
  13.1970596  18.5271704  40.8785295  28.9824200  25.1521492  28.3172488
  29.1675925  25.7436538  27.5878191  28.1143141  24.7981453  28.1241083
  28.1795692  10.9572744  32.9931140  28.3510303  10.0482404  32.7471685
  27.2486138  10.9738183  33.2151103  57.6379824  76.0017300  40.7116556
  56.9308805  76.5894699  40.9777403  57.2859430  75.1232338  40.8550024
  12.0467842  23.0483413  49.7415018  11.5106642  22.2610664  49.6466112
  12.3333931  23.2516861  48.8511419  41.1409664  24.6401048  53.6608315
  41.7017174  23.8643837  53.6538029  41.3663054  25.1058388  52.8555059
   6.0437739  58.3604860   1.1863886   6.1417544  57.4278259   1.3781640
   5.8152109  58.3912659   0.2573871  52.6894903  10.9307170  39.6558070
  52.1417284  10.1473439  39.7059393  52.5578833  11.2584686  38.7661505
  29.3121648  17.8704464  32.4721861  30.2326107  17.9427028  32.2196150
  28.9649439  17.1737242  31.9151878  35.5880976   5.1185119  60.5097771
  34.9933243   5.7687306  60.1360226  35.7848263   5.4495889  61.3860846
  55.4360867  26.7810106  55.4222155  55.4050112  26.0813236  54.7697544
  56.2974691  26.6904283  55.8297110  29.4194913  16.7308509  57.3775625
  29.0786505  17.4083364  56.7935467  28.8027191  16.0044265  57.2873926
  16.7111480  23.2042313  45.1982975  16.2154877  22.5041652  45.6231022
  16.8050706  23.8754034  45.8742714  40.0688744  74.9451447   1.2193078
  40.7080698  74.2755699   1.4628895  40.3050518  75.7060242   1.7498820
  36.1871338  25.7065606  46.5843344  37.0756984  25.9513474  46.3259411
  35.7725215  26.5337515  46.8294525  10.6877255  24.0852380  26.9487977
  11.2224746  24.6901894  27.4629068  10.2855718  24.6339798  26.2754560
   8.9115810  23.0845284  49.2988777   8.1341350  23.2528734  49.8312950
   8.8326812  22.1653509  49.0436983  57.9492235  44.8352003  10.4077196
  57.2473383  44.4057798   9.9186552  58.0047417  45.7117462  10.0271678
   5.1804239  34.6304631  45.3076458   5.2744877  35.2854371  45.9993029
   5.4452330  33.8078165  45.7191849  25.3360033  20.7951999  53.5706949
  26.1586070  21.1021566  53.9519215  25.5804658  20.4686308  52.7047729
  38.5754156  12.7916527  51.9559288  37.9359412  12.2560763  52.4254608
  38.0479550  13.4377086  51.4862156  16.5549922   3.2634720  47.1329212
  16.3833618   2.4549538  46.6501474  15.8313429   3.3285454  47.7560854
  38.7540793  29.4177651  50.5539417  38.3379149  30.2356219  50.2816391
  38.1337404  28.7359238  50.2960539  41.6292667  29.1090393  50.7464314
  40.7109594  29.2432761  50.5120659  41.6220903  29.0151334  51.6989851
  81.0934162  10.6063354  52.2391367  81.4312363  11.2819326  51.6511965
  80.4698944  11.0672271  52.8004169  34.3359399  23.3635950  60.7076788
  34.8786664  23.0528855  59.9830151  34.0322399  22.5648975  61.1390448
  40.0681686  68.2330704   3.5506010  40.1785660  69.1801596   3.4665772
  40.7976341  67.8619337   3.0542397  17.3339987  25.8610463  61.0107660
  17.3734343  25.7994723  61.9651699  16.6988075  26.5568757  60.8416891
  14.0594769   9.5115906  64.1191721  14.3663311   8.6090565  64.0325403
  14.8338652  10.0458336  63.9427090  30.4143977  39.1596651  17.2341084
  30.6951237  39.3312573  18.1329858  29.5016670  39.4469595  17.2092640
  35.7576489  17.2707367  47.5220442  35.7469726  17.1277773  48.4684467
  36.6482711  17.0428431  47.2554207  21.4251637  22.1659589  59.1508722
  20.8651543  21.3902187  59.1217566  21.9839573  22.0871210  58.3777189
  62.4276209  70.5015469  11.6067469  62.8177691  70.5091190  10.7327008
  61.6599417  71.0683012  11.5312827  70.0243330  66.7336559   9.7618145
  70.3857660  66.0645628   9.1805130  69.6587849  67.3921108   9.1710192
  20.6150174  20.7198644  54.3746996  20.8275986  19.7880626  54.3219137
  19.8704863  20.8295536  53.7832022   8.6983150  20.7369256  36.3019967
   7.7453500  20.8148193  36.2570286   8.8942695  20.7318735  37.2389102
   9.0131807  26.3345599  41.1802053   8.2388443  26.8111563  41.4793491
   8.6808330  25.7300901  40.5165815  24.7449303  20.3687835   9.8261350
  25.0590158  21.1315823  10.3116441  23.8372612  20.2610803  10.1103318
   2.3226334  71.2882805  62.8032684   2.3993152  71.2099934  61.8523598
   1.6640754  70.6370068  63.0448723  38.1256175  63.9383125  27.8117013
  38.4949160  63.1121588  28.1236577  38.3201003  64.5656776  28.5079956
  25.5950093  21.9638562  48.8501501  26.4317346  22.4156213  48.9598608
  25.7862759  21.2497973  48.2420683  21.8422651  37.8640985  27.2087264
  22.2054124  38.6003971  26.7165709  20.9501672  37.7695632  26.8748760
  50.9281301   2.4183084  50.1714563  50.9115982   1.4756013  50.3365707
  51.6705751   2.5450206  49.5807362  12.6963401  26.3073468  17.8257918
  13.1595564  27.0570946  18.1993449  13.2992017  25.9554052  17.1708667
  62.5318050  77.2071075  54.1212749  63.0062866  76.7491436  54.8150826
  61.6330910  77.2673130  54.4451857  19.5977592  14.6964812  47.8297234
  19.8895955  15.6079817  47.8145695  19.3711138  14.5024049  46.9202185
  23.2032871  18.8535213  60.5062151  22.6864552  18.4538460  61.2057686
  22.7132440  18.6614609  59.7067118  24.9119282  16.7420161  36.4758182
  24.9686193  15.8695495  36.0861778  25.8015776  17.0898926  36.4146996
   2.5487107   1.5421490  32.2595239   3.2961905   1.5437058  31.6616082
   2.6699954   0.7563870  32.7925348  25.8318901  23.2720447  41.6859961
  25.1259589  22.6256037  41.6837168  25.6576133  23.8197088  40.9205389
  20.5794048  22.3623037  50.5881262  20.3836441  23.0017400  51.2729883
  21.5194368  22.2022486  50.6715107  37.4795175  24.6872568  43.9390516
  37.1989489  25.5974817  44.0339327  38.1144118  24.7057295  43.2229519
  69.6193552  68.9716578  46.0583782  69.9316645  69.7380400  46.5393686
  70.3876734  68.6593533  45.5804777  15.4577017  77.1397877  65.7780743
  16.1637008  77.4095488  66.3654613  15.8879006  76.5899467  65.1232195
  34.6611667  25.0257897  48.9479399  35.5892324  24.8796296  48.7647390
  34.2335105  24.9478054  48.0951405  64.0305614  37.6223469  64.0313435
  64.9197626  37.2910833  63.9055824  63.6502314  37.0428991  64.6915102
  79.2164850  54.6104479  57.6680231  78.6978292  54.2991924  58.4098768
  80.0005913  54.0615129  57.6768732   6.7746818  22.5372100  40.0361872
   6.1569190  22.2276497  40.6985855   7.6221603  22.1948671  40.3204632
  21.9889617  12.4489522  49.8369217  22.2909522  11.9154668  50.5720568
  21.6356969  13.2398939  50.2441645   9.5510417  24.4752884  57.2572422
  10.3827727  24.4440341  57.7299786   9.3247342  23.5569978  57.1097326
  21.6057301  54.0988493   2.7448964  21.5960073  55.0479412   2.6209432
  22.2111750  53.7763119   2.0773354   2.2724375   4.3856356  29.4569659
   2.4464417   4.3317366  30.3966737   2.6439145   5.2272320  29.1924834
  52.3614883  36.4467144  17.0740759  51.6684771  36.2554288  17.7060354
  52.2941208  35.7461047  16.4253557  58.6077595  58.6422968  26.1195970
  59.5008755  58.8546467  25.8485246  58.2169914  58.2256699  25.3515100
  76.7041826  38.1204963  35.7958579  76.2990141  38.0690455  34.9301672
  76.2469578  37.4581838  36.3140464  19.6493053  11.4452088  56.8917990
  20.0950956  10.6125450  57.0472813  18.7511337  11.2947190  57.1865368
  11.0088420   9.5897615  41.5574932  10.4403019   8.9249450  41.1688852
  10.7698011   9.5972687  42.4843311  29.3780851  13.4299755  57.7029228
  28.8328481  13.3659756  58.4870481  28.9819360  12.8156435  57.0849466
  35.7538676  17.0088005  50.1674891  35.8251667  17.5179338  50.9749126
  34.8145151  16.8586648  50.0611639  31.0196543   3.4728500  53.4577560
  30.3998995   3.5624945  54.1816998  30.6977725   4.0789425  52.7904654
  69.3033552   3.7385657   1.4305566  69.3842649   4.4940287   2.0127606
  69.3242931   4.1119105   0.5494170  40.6203651  53.7947035   2.0536438
  41.4338589  53.2913113   2.0210102  40.7429457  54.4008684   2.7842382
  38.9385152  64.3508673  10.9347391  38.2115459  64.8011637  10.5046427
  39.5975780  65.0322771  11.0672128  13.7420249  19.8665905  49.6280909
  13.3740640  18.9952517  49.7750711  13.0227077  20.4666638  49.8248816
   6.7264360  10.6732905  38.7721395   7.1236718   9.9998254  38.2199812
   6.9212580  10.3949380  39.6670127  53.7793255  12.4298143  49.0334797
  54.0366077  11.5453446  49.2937708  53.7990952  12.4131787  48.0766296
  26.6480565  19.2595100  33.6677551  27.4095368  19.2721939  34.2475986
  27.0110202  19.0843487  32.7995372  44.8128080  47.6725292   1.4751719
  44.2744064  48.2935047   0.9845138  45.6196690  47.6000404   0.9653103
  30.3821921  24.1904640  51.9325495  29.4563317  24.3300319  51.7337132
  30.8231997  24.9597239  51.5720224  14.6318674  51.0817862  46.2063217
  15.2366388  50.8062363  46.8952036  13.7791502  50.7525730  46.4904404
  31.7053413  15.5728960  56.4657831  31.0016584  16.0403275  56.9158602
  31.2633514  14.8578405  56.0079908   1.4311384  35.7507634  38.6371565
   2.3418579  35.8917284  38.3784103   1.4790508  35.5158210  39.5638394
  23.8507867   6.5192866  52.9883289  23.5922694   6.1170745  52.1590948
  23.4908175   7.4052715  52.9472828  13.2575321   9.3881875  56.7871857
  12.8809988   8.9842814  57.5690508  12.5281227   9.4401503  56.1695337
  29.1697669  13.0422056  39.3069077  30.0495124  12.8414452  38.9875770
  28.6812425  12.2272062  39.1913629  23.8203597   0.2957094  66.7538309
  23.0291200  -0.1288411  67.0853806  23.6624622   0.3969635  65.8151865
  33.0945611  19.1102839  35.6927538  33.4823871  19.2902958  34.8363566
  33.2160425  18.1690729  35.8176327  20.1532125  27.0179319  56.2016869
  20.5034757  27.8942990  56.0419130  19.4896424  26.8976951  55.5223894
  60.9601450   7.4430788  28.0205607  60.4700470   7.8589916  27.3112965
  60.5436277   6.5882742  28.1303501  12.4472344  68.0840731  26.9033861
  12.3496735  69.0022087  27.1558690  11.7010021  67.9130793  26.3288164
  25.6068373  20.0198126  46.6410398  26.0304809  19.3399930  46.1170149
  24.7518969  20.1423717  46.2283802  50.7448626  33.8913202  11.2774384
  51.0160875  33.0361819  11.6112137  49.8970556  33.7290525  10.8637691
  76.3150501  74.6984434  55.7793188  76.6919708  75.1610708  55.0308943
  77.0627356  74.2733288  56.1994123   5.0144488  14.7650397  65.5103302
   4.3983445  15.4748797  65.6913662   4.5365399  14.1762197  64.9262714
  21.6125464   1.0967994   6.9609445  21.3796282   1.7645884   6.3159341
  22.3458290   0.6263162   6.5644896  52.8341198  48.6142921   2.4373160
  52.1186113  49.2371130   2.5652799  53.6274195  49.1478300   2.4846147
  41.6736364  17.3097467  56.6108227  41.5017700  17.4322748  57.5444603
  41.5971756  16.3653016  56.4751339  36.0887289  21.9978094  38.9147782
  35.8526587  21.2946272  38.3097672  35.6132436  22.7625966  38.5903621
  15.6510174  74.8165894  47.7444696  15.8572304  75.1121092  48.6312485
  15.9685433  73.9141464  47.7128410  54.6688938  27.0889616  13.1345308
  53.9261436  27.3004031  13.7000787  55.3480577  27.7143145  13.3873212
  17.7961433  18.1468272  51.6290998  18.0549824  19.0667641  51.5747738
  17.1478903  18.0389106  50.9331465  62.0127249  70.0336695   7.0783788
  62.5139189  70.8481169   7.1198225  61.3750505  70.1084661   7.7883130
  33.4226799  29.1949153  58.2159758  34.2518830  28.7599564  58.4146309
  33.2137299  28.9164233  57.3243380   0.1955545  21.4352584  49.9815273
  -0.3739972  20.8232379  50.4476547   0.9702516  20.9191346  49.7586060
   3.2221171  18.8196957  37.2673965   3.1354150  17.8772664  37.1240687
   2.8276691  18.9685559  38.1267476  71.5405464  63.5173512  33.4459090
  71.7069387  63.7555742  32.5338793  70.5998421  63.6519241  33.5608077
  16.6192377   5.4216409  28.6374497  16.8300128   6.3549763  28.6637402
  16.8811262   5.1415676  27.7604055  78.6397696  69.8613739  59.8724508
  79.3912029  69.3590975  59.5573282  79.0179634  70.6761217  60.2031851
  48.1474018  21.5931392  63.3441830  48.0328751  21.1340165  62.5121260
  48.8837051  21.1482239  63.7638712  28.6689568   2.2058403  36.1979580
  28.8290644   2.1090247  35.2592230  28.5044646   3.1411719  36.3176608
  24.9294972  42.3074961  20.1221371  25.5567765  43.0192041  20.2494931
  25.4501939  41.5097475  20.2154398  19.4017196  10.7954013  62.3463964
  19.2079151  11.4099419  61.6385794  19.5570910   9.9611872  61.9034767
  28.9896655  14.4259155  53.5149956  29.8323631  14.1512048  53.8764191
  28.7522650  13.7283766  52.9040003  20.8903122  30.9512448  52.8126907
  21.5854573  30.3780007  52.4895906  20.9488964  30.8850145  53.7658024
  78.5338497   3.6926818  56.0501003  78.2410049   4.5204681  56.4312077
  79.4394016   3.5998273  56.3460493  42.0855188  65.0279760   1.3946235
  42.0669270  64.3464184   2.0664594  42.1528816  64.5485544   0.5688822
  32.0999432  12.5242341  61.8578386  31.7503929  11.6409814  61.7398834
  32.0383883  12.9240131  60.9903002  23.8515711   9.3392360  55.6892109
  24.3779707   8.5953039  55.9819603  23.7862372   9.2279494  54.7407532
  26.0486031  10.5000663  59.2933655  25.5396199  11.1411226  59.7895670
  25.6256986   9.6619540  59.4803143   9.0152502  76.9757509  57.1794748
   9.8025644  76.9939089  57.7235699   8.5244507  76.2163830  57.4936533
  10.1208532  34.0355635  21.8684483  10.3833807  33.7297797  21.0002279
   9.1668111  33.9579344  21.8713713   2.1599911  76.7359543  40.6078625
   2.6256439  76.7555761  39.7717905   1.2412906  76.6156054  40.3675747
  28.2706833  76.0066938  58.9237547  28.2471323  75.6603003  59.8157692
  28.1789327  75.2351522  58.3647060  23.3368564  75.6274748  49.8853207
  23.5781980  76.3071585  50.5146217  24.0380049  75.6443310  49.2339087
  14.7841430  11.6808629  58.0216408  14.4310689  10.7914257  57.9998779
  14.0125537  12.2458994  57.9814339  25.7074857  20.6197119  57.7643299
  25.6348562  20.4326940  58.7002659  25.5535674  19.7761881  57.3388767
   8.8278836  21.8222833  56.4469433   9.0440595  21.3475347  57.2495079
   8.0335957  21.3970327  56.1236763  54.7402287  63.7206221  20.5999184
  55.4224586  64.1270828  20.0655198  55.1845026  63.4796286  21.4127994
  26.2006474   1.3962348  31.2351346  26.2146950   1.3374996  32.1904278
  25.4360628   1.9379395  31.0396910  36.8860912  10.9395242  52.8157711
  36.6424537  10.8268785  53.7345648  37.0716238  10.0527871  52.5067329
  13.0814338  15.6408620  41.3126802  13.6166525  14.8659766  41.1414337
  12.4093568  15.6230927  40.6313372  38.9171576  33.1351995  58.5700274
  38.7147117  32.2600770  58.2392645  38.0657387  33.5071373  58.8002062
  63.6589384  65.6239700  16.3438880  63.5165215  65.9698153  17.2249877
  64.3153191  64.9369192  16.4594638  17.9866552  75.0284958  50.0310993
  17.5409806  74.4722128  50.6699705  18.7020373  74.4861078  49.6990252
   8.5452127  68.7896585   3.6333066   8.7076157  69.2549562   2.8127250
   9.4178891  68.5971165   3.9762285   7.9203248   5.8901900  15.0177288
   8.8555413   5.7028711  15.0984311   7.8825694   6.7228055  14.5470285
  33.0387688  45.5748510  64.0755749  33.2697535  45.4964304  63.1499767
  32.8662205  46.5079594  64.2011452  78.7782526   9.6851701   4.5691693
  79.0738535   9.2945987   3.7467909  78.7317848   8.9500004   5.1803958
  47.4353409  43.1165171  58.5529327  46.9880915  42.6889133  57.8226185
  47.0477390  43.9908457  58.5922956  44.8713112  33.1536031  60.2255917
  45.6477547  32.9490280  59.7045183  45.2176237  33.4169722  61.0782003
  35.4325032  31.9749212  58.4425879  35.7021689  32.7582264  58.9221096
  34.6990085  31.6251040  58.9484024  22.2209692  26.3351750  51.3525057
  22.3148561  25.9598541  50.4769754  22.3087358  25.5878448  51.9441366
  66.7866039  60.6589842   9.6681035  66.3694811  60.6485844  10.5295742
  66.3503456  61.3704300   9.1993284  60.1133728  74.4884777   8.5518914
  60.2726126  75.2954674   8.0623519  60.1339817  73.7982225   7.8890550
  44.4213104  27.1720481  57.1789265  43.8402987  27.4427104  57.8898430
  44.2518902  26.2357736  57.0744419  67.2508001  70.6098175   4.0986940
  67.8073215  70.7184124   4.8698777  67.7699661  70.0698185   3.5027936
  32.6986456  29.3480229  64.4150066  32.9260087  29.7235084  63.5643911
  32.8452539  28.4080982  64.3088102  42.1840382  41.2783241  60.8234119
  42.3625803  41.7902851  60.0345850  41.7394495  41.8899298  61.4103603
  30.2763867   2.8904399  38.6746478  29.6594381   2.5387999  38.0328107
  29.7752476   2.9353553  39.4889402  10.7471597   6.2595695   3.3293563
  10.1172483   6.3219649   2.6113385  11.0647035   7.1547532   3.4478658
  20.3520012   7.2921377   2.2219372  19.4557357   7.5959283   2.0782287
  20.8307600   7.5827318   1.4456791  36.0059977  43.0760622  61.0419750
  35.8059120  43.2499695  61.9617319  36.4537144  43.8666201  60.7406378
  77.8688288  71.8951178  35.1524997  77.5142336  71.9173956  34.2636800
  78.6962414  72.3726130  35.0923109  38.5191298  13.6591434  62.9192591
  38.3813477  13.1651843  63.7275028  39.4640994  13.6189353  62.7721262
   4.1570669   4.1109550   6.5907037   4.6970949   4.6734402   7.1458721
   4.4905120   4.2570001   5.7054257  19.8733342  55.8339691  53.7670326
  19.0697646  55.8837509  53.2493162  20.5604744  56.1343956  53.1722116
   2.1358131   3.6287504   3.7084651   1.4925069   3.0647618   4.1377735
   2.4157773   3.1311169   2.9402119  48.4482765  39.6905541  61.5984583
  47.8032160  40.3915977  61.5053749  48.6584902  39.6809435  62.5322390
  54.5614290  15.3836441  57.5644064  55.2861834  14.8206925  57.2922850
  53.7764359  14.8640096  57.3911953  32.4692082  22.4671626  57.2288036
  33.1871104  22.5812078  56.6060352  31.8574643  23.1734586  57.0210791
  42.3856068  17.0264769  43.0201530  42.7698898  17.6981950  42.4568129
  42.3012257  17.4499035  43.8744497   6.1970782  11.9949222   2.1165328
   6.6428101  12.8418231   2.0988451   5.8393300  11.8940794   1.2344448
  68.8663816  61.1954975   0.5075626  68.7331820  61.0037374   1.4358506
  68.2650185  61.9170618   0.3233550  37.5327182  23.7395048  49.1478014
  37.2394657  23.2662749  49.9264479  37.0620751  23.3254027  48.4244442
   7.7951038  19.2586017   9.4709229   7.9061311  19.7847581   8.6790490
   7.2006941  18.5552502   9.2097610  80.1744556  74.0782499   8.3712655
  80.1121521  73.1601524   8.6347920  79.6437263  74.5485306   9.0142268
  75.7477379  13.6671650   1.5505306  76.0995197  12.8701162   1.9470060
  75.8315468  14.3318629   2.2341861  37.7076483  21.1336756  30.1780248
  38.4153557  20.4947257  30.2624297  37.8008509  21.4784002  29.2899323
  39.8076129  11.5681279  60.7779741  40.4983902  11.8658173  61.3699532
  40.1719236  11.6947353  59.9019146  61.5369797  35.1507163  51.2905884
  61.1978197  34.3407631  51.6716146  60.7612085  35.6021476  50.9579849
  49.0303802  35.4232216  56.6929197  48.3360577  35.6858420  56.0886240
  49.3199348  34.5703197  56.3689566  51.2385941  42.7819586  54.0592575
  50.6966543  42.3500252  54.7195339  50.6472111  43.4015751  53.6319733
  46.4715815  39.3346214  47.9642057  45.6981707  39.1688204  47.4251509
  46.2914276  38.8808799  48.7875509  44.8323154  36.1515474  48.5164595
  44.4928646  35.5928564  49.2156506  45.3959084  36.7815351  48.9655733
  70.6984568  33.3259082  49.1137266  69.7690344  33.3433032  49.3419981
  71.0961103  33.9890718  49.6779251  55.1419783  37.1994352  59.7730637
  54.3578720  37.1570063  59.2256927  54.8077822  37.3293257  60.6605721
  73.7567902  17.4373221  36.2705493  73.4005976  17.2900331  37.1467137
  73.5585213  18.3546865  36.0824943   3.0634820   2.6929930  56.8689299
   3.9262480   2.9981962  56.5883589   2.6146698   3.4842795  57.1666956
  72.8642273  63.1014347  54.2695522  72.7646303  63.6341238  53.4805298
  71.9778061  62.7998686  54.4684124  12.1978796  35.8917117   5.6946594
  11.4616001  35.9229493   5.0838000  12.2533143  34.9725938   5.9561533
  28.3242917  24.1877341   4.6977955  27.7503848  24.4468188   5.4187244
  28.6448574  23.3207893   4.9465409  65.5059004  71.2865067  65.0395679
  66.4439726  71.0961151  65.0415373  65.1845837  70.9160185  65.8615971
  38.0043077  66.9224787  38.6554837  37.9702449  67.1268845  37.7209830
  37.2025442  67.3036575  39.0134120  59.2262173  58.6641264  47.8076553
  59.0643024  58.9453840  48.7081575  59.7206688  59.3845987  47.4169350
  80.5173492   2.7150705   0.9234689  79.6672583   2.3462372   1.1633265
  80.9903336   2.7857387   1.7526412  36.3501954  69.2044830  61.5546513
  35.5430150  69.4743252  61.1166096  36.5065813  68.3137083  61.2411213
  78.9433432  48.3788824  57.3472452  78.4346437  49.0363359  57.8218079
  79.5521688  48.0309486  57.9987907   5.7649004   1.8341969  64.0783358
   5.4517496   1.5835476  64.9474382   5.1107770   2.4552611  63.7579679
  49.7391701  66.9855976  50.3975916  50.6750965  67.1622324  50.3023672
  49.5366383  66.3775206  49.6866369  39.7961164  33.4679461   7.5660354
  40.3452063  32.7526402   7.2449887  39.4517207  33.1495762   8.4004593
  34.1278672  45.6797838  15.3763008  33.6221838  44.8804951  15.5234563
  33.9728498  46.2087631  16.1588490   4.8271951  36.5596414  53.1093979
   5.4912126  36.2864423  53.7423849   5.0249267  37.4802113  52.9371023
  76.5494156  12.3402846  50.5179691  76.9210815  13.0405092  51.0544252
  77.2134018  11.6509342  50.5303860  42.7475643  23.6832213   5.8975744
  42.7162218  24.2504835   6.6679406  43.3573055  22.9857516   6.1383647
   1.3287818   9.5366520  40.1010799   0.9793516   9.2909616  40.9576797
   1.8007243  10.3540373  40.2604008  60.3697777  67.1180582  25.4702640
  59.4429827  67.1514797  25.2332854  60.7211828  66.3881063  24.9604392
  18.7532902   3.0199876  19.1975582  17.8583848   3.2296735  18.9303386
  19.2144310   3.8582987  19.1689897  24.9959087   7.8368831  60.2399445
  24.7286987   8.2643545  61.0536385  24.8065901   6.9095880  60.3831720
  71.4798594  45.0352049  63.0057621  70.8857584  44.3914175  62.6199913
  71.4843559  45.7610607  62.3817873  41.9204760  28.5417032   9.0129226
  41.6495943  27.6241016   9.0422666  42.4021912  28.6230230   8.1897771
  26.2216258  68.8003206  46.4978981  25.9635091  69.2242956  47.3163414
  25.6674004  68.0215931  46.4463902   7.3681837  46.9931269  -0.2547520
   7.3985213  46.6597986   0.6420229   7.6338392  47.9095745  -0.1787498
  71.6822624  66.2152719  57.4606276  71.7935419  65.9564304  56.5458345
  71.2139177  65.4830027  57.8614664  55.8698654  48.7364244  58.6865950
  54.9867105  48.4971666  58.9677191  56.0807753  48.1064320  57.9974985
  64.3087101   1.0508665  55.6277084  65.0706005   0.4880909  55.7656956
  64.6570063   1.8186310  55.1744318  62.4797487  75.9517097  22.9217196
  63.2830954  76.4612246  23.0278444  62.5095844  75.6433535  22.0160389
  32.0504618   5.5121922  15.1845348  31.1413860   5.3849655  14.9131954
  32.0158386   6.2415421  15.8034706  58.3564997  42.8949070   5.4504228
  59.3091917  42.8044987   5.4714870  58.0485868  42.3557997   6.1789733
  21.0221720  24.8634386   1.1952765  21.8445516  24.8166132   1.6828516
  20.8502412  23.9604330   0.9283429   7.2186989   2.1930234  27.9288745
   6.8476772   2.3115556  27.0545030   7.5929463   1.3121635  27.9128599
  80.1451302   1.1188337  40.5207634  80.0952816   0.7591511  41.4064169
  80.1047611   0.3526298  39.9484587  72.7150488  48.5667086  51.0881376
  73.3515835  49.2699242  51.2167740  71.8691158  48.9712381  51.2804508
  79.8184204  17.2671056  23.2609224  78.9005470  17.4272203  23.0416036
  79.8744535  16.3189363  23.3795309  60.3326178  57.6569414  52.2081137
  60.8894539  57.8703260  51.4593601  60.2763367  58.4731054  52.7050447
  79.6491671   2.6719481  22.1696305  79.4008017   1.7669003  21.9813848
  79.0165472   3.2001323  21.6827559  72.4427748  16.2341952  61.0594463
  72.9930735  16.0481954  61.8202353  71.5521002  16.0487700  61.3570166
  53.9010906  67.7970123  59.7579002  53.8230467  66.8538952  59.6141195
  54.5775175  68.0780649  59.1417122  48.5384178  45.7966995   0.8173303
  49.1271973  46.1822796   1.4660931  48.2186842  46.5431070   0.3105012
  73.6544514  72.6112652  50.0253487  72.7173519  72.6592970  49.8362303
  73.7388659  71.8762112  50.6326437   0.9270777  22.2692204  30.5103922
   0.7721414  21.3258886  30.4619002   1.4852041  22.4593472  29.7563505
  61.5381670  65.7481146  33.0220079  60.6801844  65.4850531  32.6889920
  62.1203470  65.6786537  32.2653890  41.2897968  21.3903475   7.7989942
  40.5287313  21.8112063   7.3991251  41.3085794  20.5140567   7.4142957
  69.5223570  62.4829531  50.1243639  69.7160530  62.9099035  49.2898464
  68.6045837  62.6949930  50.2945471  52.0289660  69.6250057  31.6089940
  51.5556049  70.2929783  31.1130357  51.4578295  68.8573265  31.5824294
  42.8578520  18.1825459   7.6896042  43.6383486  18.3854687   7.1739680
  42.8802729  17.2312987   7.7938074  21.9270349   2.0084563  55.1799726
  21.5429401   2.6019907  54.5346689  21.1744618   1.6224170  55.6281233
   4.4878569   7.1663535  61.8206596   3.7958577   6.9578415  62.4482679
   5.2246541   6.6153044  62.0846844  39.4778061  73.7672663  39.5887303
  39.8408914  73.0169678  39.1181397  38.5699868  73.8208628  39.2900252
  50.1789045  64.0063381  57.2839785  50.5212307  64.4961691  58.0317163
  49.8349810  63.1980705  57.6643085  11.4166665   0.4016530  41.4141750
  10.5821550   0.5355124  41.8635130  11.7324591   1.2856817  41.2270880
  60.6680870  73.3581638  41.0746527  60.7719660  72.7162743  40.3722143
  59.7741842  73.2254076  41.3901520  64.2306280  70.0415802  58.7418890
  63.7381124  70.5118370  58.0691957  65.0181770  70.5691290  58.8748884
  20.5360103  15.5456507   2.4804430  21.0200548  15.0929749   3.1711078
  21.1612797  16.1765957   2.1238226  69.7336531  57.0192146  51.8866920
  68.8194942  57.3029900  51.8820000  69.7178793  56.1677408  52.3237038
  13.1381059   1.3528861  49.9600554  13.0243301   0.8593856  50.7723045
  12.4525893   1.0211165  49.3802071  61.8916321  66.6761303  56.4457273
  62.1389151  66.2538576  57.2683859  60.9385347  66.5944529  56.4116096
  25.5933499  33.6813474  18.9694238  25.9012413  32.7836847  19.0944803
  26.0810471  33.9981031  18.2091284   5.0194967  33.4700632  10.3533888
   5.3630888  33.2257175   9.4940448   4.6055540  32.6718521  10.6816292
  56.2439680  68.9543009  40.8274746  57.1840191  69.0136147  40.9978342
  56.0785484  68.0175686  40.7206821  41.9516563  43.5448551   2.4493097
  42.4280405  44.3730736   2.3915209  41.5101194  43.4630299   1.6039804
  27.6338792  44.6676207   1.3350339  28.3778977  44.5673323   1.9288459
  27.6944280  43.9155054   0.7460623  15.0714052  11.7127419  11.0445631
  15.8274460  11.1299741  11.1153972  15.0426102  12.1708786  11.8845105
  79.2966032   0.5049730  43.3283424  79.5655203   1.3796787  43.6090660
  78.3502769   0.4879610  43.4711981  29.7297645  32.1774840  18.1866086
  29.2369199  32.9634094  17.9506946  30.6223512  32.3567772  17.8910160
  22.7777958  45.8679247   9.5400441  22.6115441  46.7871523   9.7488838
  22.4722385  45.7680941   8.6384344  77.7757692   3.5652843  37.2237253
  77.9322815   3.3759698  36.2985802  78.3141184   4.3357146  37.4049592
  75.4163790  33.3840466  52.8352118  74.6133137  33.0652356  52.4232912
  75.1262760  33.7602115  53.6662197  59.5510817  71.3997221  49.8080730
  60.2710962  71.1098862  49.2478848  59.9414492  72.0650053  50.3748512
  20.8262801  62.1409416  15.2342832  20.4189467  61.9573545  14.3877578
  20.1032639  62.4321890  15.7898498  42.6433468  37.5137854  14.3285942
  42.8084373  36.7098856  14.8212612  42.9875040  37.3335266  13.4537852
  31.2496567  54.7857332  65.8904600  32.0601010  54.3710518  65.5947447
  31.4791036  55.1904821  66.7269850  68.7580872  59.9446487  27.5226593
  69.4456625  59.9472046  28.1885934  68.2934189  59.1193676  27.6613259
   2.2458026  76.9713234   5.2320802   2.3818323  77.4903205   6.0247779
   2.9738399  76.3499219   5.2247769  70.3332901  73.0394459  53.8347816
  70.1290464  73.9652872  53.9664364  71.0532951  72.8644896  54.4407606
  63.0699682  62.7600479  51.6501331  63.9006042  62.8515768  51.1833286
  62.5222492  62.2376204  51.0642099   3.1902528  -0.0413294  56.3274717
   3.5022476  -0.3518756  57.1774435   3.1152931   0.9072090  56.4318180
  67.7264261  59.2810678  39.6018243  67.8330374  58.3368397  39.7171187
  66.8251562  59.3848324  39.2965674  46.9877100  63.7272692  56.5736914
  47.1218061  64.1070986  57.4420118  46.7585802  64.4728756  56.0188961
  31.9664192  45.7939053  21.9381785  32.2194338  46.3450956  22.6787210
  32.7228498  45.2255535  21.7931795  75.9063244  12.7183247  47.7537012
  76.2112093  13.6248612  47.7153444  76.1750364  12.4117017  48.6197329
  42.8350496  73.4493065  43.8990498  43.3519840  73.0353165  44.5901537
  41.9836950  73.0140257  43.9433718  78.3829498   1.0901038  51.7614269
  77.8614235   1.4152676  51.0275936  78.1870985   1.6917942  52.4796486
  74.2165899  71.7773247  37.0964456  75.0753403  71.3577318  37.0442367
  74.4091082  72.6921177  37.3021865  78.9022064   1.3659616  62.0962381
  78.1382227   0.8665730  61.8078423  79.4266748   0.7367182  62.5914288
  46.6260004  63.0246925  38.6336160  46.4448547  62.5164843  39.4242764
  45.7617378  63.2702017  38.3034539  68.1199837  59.9680901  42.1636295
  67.3110056  60.2062988  42.6164436  67.8583527  59.8538780  41.2499905
  38.3913302  43.7819052   8.0360585  37.7192092  44.4154501   7.7848428
  38.9713860  44.2678547   8.6222535  80.1267815   9.3783063  61.9047737
  80.0809288   9.0709859  60.9994078  79.2347765   9.6601933  62.1074915
  30.9912348  15.8689582  51.9929695  30.8760834  15.3518200  52.7901793
  31.7306399  16.4453411  52.1860838  49.3796730  67.1488953  34.4496465
  49.8508692  67.9818344  34.4291687  49.4424152  66.8161488  33.5543394
  16.8508351  11.4492941  50.8852482  17.1097326  11.6532981  49.9865913
  16.2994671  12.1860337  51.1487627  58.8255835  72.5561762  31.6476130
  59.0052128  72.6721907  30.7146049  59.5741892  72.0578766  31.9755006
  38.1459832  54.0892220  27.9827023  38.1259394  54.4042635  27.0790553
  37.5874686  53.3118725  27.9777884  32.7114487  26.4409947   4.8364133
  32.6672220  27.1183467   5.5112988  33.1386209  25.7008243   5.2675790
  59.5132542  56.1308670  17.0705819  59.3792200  55.2085876  17.2889018
  59.8687983  56.1174297  16.1819649  28.3666563  20.9976149   5.3125060
  27.9818511  20.6814575   4.4950703  27.6321292  21.0324454   5.9252745
   7.3351163   3.4360832  58.2075644   7.1518350   3.0882758  57.3348284
   8.1393975   3.9436218  58.0990839   8.0171627  25.6046367   8.4312278
   7.8892058  24.9654818   7.7302712   8.9366257  25.5075288   8.6789978
  37.2180128  37.5329375   0.1300745  36.8445158  37.3095107   0.9826069
  37.7416253  36.7684031  -0.1098128  66.3549614  62.6854992  58.6812115
  66.9330120  63.4203577  58.8863182  65.5314350  63.0952406  58.4163570
  34.9212599  21.9456768  10.8120549  35.4290199  21.7306376  11.5944684
  34.5275831  22.7958441  11.0081828  34.5464325  24.6464992   5.7223850
  34.6466517  24.9339032   6.6299027  35.2475286  24.0074396   5.5947226
  75.3055429  67.0999289  43.9943075  75.5735350  67.3892117  44.8665047
  74.4991446  66.6061258  44.1430092  74.5591354   4.6153405  66.9175577
  74.7950411   4.9121839  66.0386610  75.1942015   3.9273390  67.1164989
  73.4264660  48.9165497  45.2467489  72.6265907  49.3818188  45.0018787
  73.6078739  49.2062283  46.1408472  61.3161993  70.1088142  48.2835531
  61.8916607  69.4960976  48.7414408  61.8832397  70.8457375  48.0563259
  58.4854221  70.1513243  33.5766196  58.3980417  69.2628288  33.9218283
  58.0101061  70.1333666  32.7459669  76.6834116  53.3771610  44.5750570
  77.1149921  52.8725481  43.8856125  76.5817022  52.7574778  45.2974701
  60.5224228  63.3620024  29.0333438  61.0353899  62.9502392  28.3379674
  59.9980879  64.0247440  28.5838103  50.5505800  68.5859156  20.4966068
  50.8816767  67.7305555  20.7704020  51.3363791  69.0921307  20.2904510
  61.6141129  54.4884872  42.6443720  60.7098675  54.2974186  42.8934956
  61.9725800  53.6423969  42.3763084  60.5358124  65.4169941  53.4751177
  60.8719540  65.4152393  52.5788784  61.2543106  65.0657892  54.0010881
   3.7623984  45.2861881  18.2752931   3.3932525  44.6618366  17.6506734
   3.0910072  45.9628010  18.3627963  40.6308651  44.7809982   9.2030156
  40.8331537  44.2397404   9.9661338  41.4303637  44.7617865   8.6770266
  64.5965624  57.9824018  36.4666367  63.8414812  58.1920242  35.9169626
  64.6874475  57.0321131  36.3964725  42.6130533  64.1882801  53.7610865
  41.8172598  63.9303017  53.2959032  43.2806015  63.5761452  53.4514093
  63.9937830  54.3660927  56.1382675  64.8471737  54.6983147  55.8597326
  64.1433048  54.0341473  57.0235300  36.2378478  17.3736000   3.6244038
  36.1402345  17.8576446   4.4444060  35.5008841  17.6628065   3.0863729
  10.8605456  23.4676027   4.9180895  10.9206021  22.5759506   5.2609891
  11.6788328  23.8839507   5.1888186  68.0591202  54.1334724  40.4573154
  67.3037434  53.9639616  41.0202503  67.7762699  53.8544226  39.5864773
  44.9235582  28.5788655   0.8906570  45.1340294  29.1772103   0.1737765
  45.6909227  28.0111408   0.9619001  57.8149986  64.3578053  53.1353903
  58.7122154  64.6627474  53.2704449  57.6866770  64.4031620  52.1879148
   0.6542098   5.1842564  42.4102736  -0.0551868   5.6632739  41.9818687
   0.2428263   4.7792768  43.1738091  80.4452610  60.7432795  28.8870668
  80.2606201  60.5564213  29.8075175  80.0870800  61.6193295  28.7439895
  69.9055624   1.0710971  52.5170708  69.9388981   0.4448991  53.2402515
  68.9782906   1.1192761  52.2845125  63.8974380  10.1216757  47.4648046
  64.6286201   9.8373485  46.9163847  63.7242794  11.0207975  47.1858263
  48.5226107  29.4950199  65.5152702  47.8604698  29.0875793  64.9568796
  49.3154335  29.5042157  64.9790049  41.3172626  71.7212629  62.0736170
  40.5785322  71.1653519  61.8256855  41.8196726  71.8263674  61.2656736
  80.6739426  15.1796746  11.4137280  81.2594891  15.8012640  11.8461573
  80.2223301  14.7365689  12.1320164  75.4586506  54.0824795  35.6945276
  74.8465157  54.0650797  34.9588490  75.9010124  54.9278831  35.6180882
  32.7708888  38.2167745  24.1898751  33.2609892  38.6206150  23.4736705
  32.9801965  37.2848105  24.1277122  37.7357507  41.9673157   5.1686054
  37.6989317  41.5845299   6.0451621  38.6544228  41.8889713   4.9114349
  81.0042953   7.3077226  56.5503788  80.4477596   6.8619871  57.1889782
  81.6402721   7.7878219  57.0807314  68.4566975  25.3754091  61.5314817
  67.6154232  24.9260211  61.6123867  68.2633448  26.1533594  61.0083771
   0.3623217   7.8622717  62.9547882  -0.2996238   8.5046154  62.6989460
   1.0247009   7.9134858  62.2656822  42.7896404   2.9241943  53.2677317
  42.8773499   2.1263108  52.7462673  42.3143148   2.6473191  54.0510798
   0.7918930   6.3773900  46.0831642   0.5467378   5.6871319  46.6993427
   1.6417517   6.1013424  45.7399893  21.4656687  24.4438362  36.0274673
  21.9957161  25.0670218  36.5243793  22.0070291  24.2188430  35.2708054
   2.8831506   8.9053917  48.5084772   2.2846650   9.5010942  48.0577135
   2.3652986   8.5449368  49.2282915   6.1094731   2.8897533  49.6208477
   6.1546475   2.1580946  49.0053272   6.4333391   2.5288194  50.4461193
  71.9228315  73.0584574  14.8142338  71.5885496  73.8895941  14.4770372
  72.3965597  72.6739311  14.0767026  59.1429520  60.1794481  60.3372860
  59.6211672  59.3512058  60.3767490  59.0528297  60.3596354  59.4015312
  49.9682426  46.7051172   2.7298418  49.9553442  45.7938528   3.0225185
  49.9875832  47.2162771   3.5388985  23.4015822   9.6926862  35.4420996
  22.6084661   9.5299822  35.9527111  24.1043830   9.2993921  35.9594226
  12.2889185  11.7948914  47.0275640  11.4781404  11.9806385  47.5012398
  12.9614842  11.7615664  47.7078390  24.9708366  41.8753004   8.4890443
  24.5152879  41.8333864   9.3298471  25.2265048  40.9704638   8.3097881
  50.9886265  69.5694447  34.9868441  50.8194923  69.5584488  35.9289193
  51.4927673  70.3703737  34.8433495  56.9333553   7.4601394  40.8115673
  56.0168028   7.3072886  40.5817986  57.3231602   7.8201848  40.0149202
  44.6078968  43.6509514   9.3282777  44.4966888  43.4457731  10.2565920
  45.3669167  43.1341505   9.0580177  20.9745479  18.7311304  44.6232176
  20.8189607  19.6690083  44.5118189  20.1374006  18.3218181  44.4044018
  67.7829647   7.3479187  55.9896946  67.0470810   6.9869167  56.4840460
  68.2761383   6.5805227  55.6996632  54.1256046  68.7940264  56.8134260
  53.5045052  68.0919218  56.6197348  54.2218876  69.2639017  55.9850645
  18.3971977  16.5001917  58.9036703  17.6214015  15.9548759  59.0340662
  18.0590177  17.3106682  58.5228872  16.3588822  18.0705726  65.1781178
  16.3443351  17.5333428  65.9702110  17.2615600  18.3831418  65.1172590
  62.4850512  69.5952225  28.7805676  62.2723532  69.2487383  27.9140019
  63.3896589  69.8981094  28.7019897  60.9588003  75.6077528  29.2019248
  60.8103991  74.7610092  28.7809348  61.4413214  76.1175156  28.5511160
  74.4700050   2.7174088  46.1155272  74.9772024   1.9145951  45.9952211
  75.0882387   3.3350253  46.5061378  36.4931583  29.9859214   4.4795573
  36.0336995  29.2959642   4.0009272  37.4203801  29.7706866   4.3787372
  16.1684775   3.0310479  62.2569275  16.8907690   2.6249731  61.7777300
  15.5081022   2.3414195  62.3243713  70.3106308  69.6656036  60.0033283
  70.7385015  69.2823887  59.2376232  71.0265303  70.0454664  60.5126667
  19.2222166  24.6055150   4.8708603  18.9607275  23.7228441   5.1330584
  20.0629735  24.7455740   5.3064567  69.6284103  64.3083096  58.6537075
  70.1396275  63.8499928  59.3206596  68.9868784  64.8160267  59.1505909
  63.6094475  69.9412346  42.4066353  63.9925480  70.7935810  42.6139355
  63.5623407  69.4886208  43.2487440  11.0303533   5.0132036  34.8419428
  11.4650667   4.6448866  34.0727878  10.6760335   4.2532647  35.3036594
  67.1976614   0.4838182  51.9551754  66.4130497   0.2858885  51.4438581
  67.0005274   1.3167737  52.3836088  71.3659573  58.4832668  65.2716827
  70.9377480  58.9087772  66.0145235  72.0850658  57.9865837  65.6620932
  17.8502774   1.7573422  43.8962126  17.2130179   2.2525580  43.3815336
  18.5206258   1.4994220  43.2634878  75.0901318  77.0494604  26.5224266
  75.7539940  77.6703787  26.2224627  75.5916119  76.3199902  26.8865967
  68.6376047  11.9363415  41.4304113  67.7136993  11.7656481  41.6134214
  69.0148067  12.1521699  42.2832680  69.2859602  69.3680716  43.2228899
  69.1101789  69.5913649  44.1369343  69.1508341  70.1869631  42.7460337
  10.6108761   2.6342744  55.9092093  11.2644982   2.3364398  55.2765131
   9.7734523   2.3594384  55.5358219  60.6310177  60.1684475  29.0062094
  59.6860409  60.0596094  28.8994122  60.7283211  60.5943441  29.8578978
   0.2155149  69.0345812  53.7271595   0.1857388  68.7656641  52.8089905
   0.9889713  68.5950899  54.0804911  32.2100043   1.3896124  54.9683523
  33.1108975   1.3747132  54.6452379  31.7142034   1.8257681  54.2754030
  37.3651648  59.1759682   2.8792012  37.6401567  60.0583363   2.6301193
  37.9523134  58.5962057   2.3940580  24.6909118   4.9935785  40.1917696
  24.6911454   4.1362384  39.7660923  24.0317965   4.9182123  40.8817816
  60.1378775  71.7839193  62.8104019  59.2377186  72.0747948  62.9564810
  60.1450872  70.8719969  63.1012344  59.6141243  57.9034138  43.9133692
  59.3259764  57.7004528  43.0234194  59.2328072  57.2104549  44.4524765
  11.9260669   3.3143759  40.4744911  11.0672545   3.2609695  40.0551796
  12.4690449   3.7930608  39.8481798  27.6427126  30.8024263  15.8375740
  28.4243703  31.2110090  16.2094653  27.5493503  31.2055492  14.9744368
  75.8845377  63.5743093  51.6928148  76.3092947  62.9507828  51.1037254
  74.9712086  63.2896376  51.7247581  21.5788579  23.7405157  45.5729389
  22.3312187  24.1666460  45.1623344  21.9614506  23.1661081  46.2362003
  61.2732458  60.4769278  64.1154718  61.5498447  61.2842798  64.5489597
  62.0200491  60.2299881  63.5700035  34.9585891  49.6018791   4.0462795
  34.2073584  49.7065306   4.6301723  35.1851892  48.6741734   4.1114575
  12.0511162  50.4906750  19.6670568  12.8307950  51.0377741  19.5720935
  12.3913872  49.5986509  19.7359061  52.6512051  37.5748515   2.1710896
  52.5355339  37.8177500   1.2524754  53.5538864  37.2608304   2.2239619
  64.3146658  76.7500925  49.7707415  64.4335127  76.3727617  50.6423664
  64.4080925  77.6934433  49.9033546  65.1721621  14.8648906  29.6374702
  64.8816013  14.3098783  28.9137530  66.0955191  14.6415591  29.7548127
  10.0458086  26.3707757  45.1168394   9.4531846  26.3452172  45.8680868
   9.7474873  27.1204495  44.6018362  58.5002375  47.3897219   8.9137530
  59.2646313  47.9654932   8.8932192  57.9228497  47.7337790   8.2322246
  32.2723389  31.8695879  17.2115993  32.9724646  32.4900985  17.0090580
  32.4550271  31.1123919  16.6552591  10.5897474  27.6581025  63.0926752
  10.7389498  26.8192387  62.6564646  11.2560058  27.6929879  63.7790489
  77.9403091  11.4630880  66.6711522  77.0620394  11.2673178  66.3447361
  78.2138348  10.6620064  67.1180129  11.6226816   7.6430959  51.4145565
  12.2824764   8.2673830  51.1126137  11.9142067   7.3916107  52.2909117
  23.0642986   0.3160070  29.6426034  22.9031539  -0.2906790  30.3652358
  23.5659695   1.0297605  30.0364470  44.3520975  32.6414824   0.8984032
  44.3850899  33.4406662   1.4241844  44.5448160  31.9384956   1.5188086
  19.4701052  63.7091303  61.9661570  19.6673465  63.9574337  61.0630131
  18.5794401  63.3604002  61.9296122  69.7441292   3.9492425  46.9840431
  70.0452852   3.1844276  47.4745464  68.8892365   3.6912802  46.6392994
   2.7993011  70.1991844   8.5205519   3.6318845  69.7318125   8.4527427
   2.5445774  70.3675699   7.6133609  22.1877432  39.5081615   2.2163346
  22.7945518  39.3512774   2.9398012  22.4872708  38.9222789   1.5211672
  42.4090099  67.0742893  54.4453716  41.5936756  67.3305225  54.0143251
  42.6284647  66.2267780  54.0583420  66.7866135  65.4078150  63.0444241
  66.1716127  65.1446438  62.3597717  66.2332296  65.6084824  63.7992287
  54.5475197  62.6704597  50.4774570  55.1847267  62.1107864  50.0336552
  53.8893700  62.8608274  49.8090029  73.8391256  63.2918262  47.5267792
  74.5415306  63.2731009  46.8767738  73.2370853  62.6015329  47.2488022
  78.6925268  61.5859509  47.1732044  79.4203043  62.1904993  47.0279646
  79.0154886  60.9776354  47.8379440  60.4451227  21.1859012   9.4851023
  59.4933653  21.2300873   9.5769817  60.6078815  20.3307056   9.0871346
  36.7654419  31.5963531  24.9733567  37.2078991  31.0618711  25.6327462
  35.8435726  31.3483453  25.0432277  70.3593063  70.9798956  52.0436192
  71.2732029  70.8790731  51.7774200  70.4006290  71.4859533  52.8550529
  39.6461225  48.4052658   3.5711041  39.4635606  48.3202982   4.5068842
  39.1574669  47.6889372   3.1657383  65.9847116  74.6184778  46.2945843
  65.9048367  74.3344116  47.2051668  66.9274282  74.6300650  46.1291170
  66.3444376  73.5933352  43.7666082  66.1164093  73.7328672  44.6857214
  66.9346428  74.3162632  43.5538530  15.5243897  20.0723553  62.6162195
  16.3951802  19.8359001  62.9356623  15.6610394  20.3041720  61.6976213
   5.0001436  27.3091483  58.5751152   4.1053337  27.0982528  58.3085251
   5.4057163  26.4591646  58.7461996  60.2423620  64.9125195  44.0096045
  60.2765942  65.7660294  43.5776567  60.1474428  64.2850542  43.2930088
  73.7658358  52.0597506  48.4887981  74.0665007  52.4017000  49.3307590
  73.1386280  52.7115536  48.1757593  52.3474216  69.2903996  25.8811545
  52.3201466  70.0129843  26.5083361  51.6131830  69.4581509  25.2904081
  33.1904054  44.8466730  25.3892207  33.6913562  45.6622458  25.4002953
  33.4588909  44.3898344  26.1863708   6.7596835   2.3915529  55.9067202
   5.9279370   2.6291466  55.4968691   6.6901547   1.4494374  56.0610437
   1.0691480   1.1076221  54.4043922   1.5141721   0.5259933  55.0207472
   1.1020292   0.6416139  53.5689402  74.1919661  62.4812937  62.3013687
  74.1166210  63.3414984  62.7144146  73.4953833  62.4689436  61.6449738
  51.9661617  63.9582109  33.9822412  52.1757317  64.8879671  34.0709186
  52.3372984  63.5532093  34.7661185  32.9619074   1.7120977  58.5539484
  32.6891923   2.5050306  58.0923033  33.9101601   1.6760334  58.4284449
  76.0872459  64.1731167  39.1860342  77.0365858  64.1155052  39.0780115
  75.9475040  65.0063801  39.6358919  67.9440546  67.8175783  63.0750036
  68.7862301  67.7057266  62.6340199  67.5237417  66.9600821  63.0096817
  46.9834042  15.3863299  55.7592916  47.3821545  15.0503564  54.9565744
  47.5100899  16.1528611  55.9857035  72.2300148  32.0096397  61.6779137
  72.1713400  31.0866666  61.9247103  73.1696844  32.1873617  61.6370201
  78.1097078  51.3158703  34.9555445  78.1325483  52.0701361  34.3666553
  77.1776724  51.1337996  35.0755000  62.2856379  68.5699892  44.4317436
  61.4542913  68.2590771  44.7901058  62.9491901  68.2147551  45.0231314
  23.6802673   0.1116403  56.3749695  23.2979155   0.9739498  56.2123013
  23.6075902  -0.3445958  55.5366373  33.1547761  36.2272882  10.9762704
  32.7631640  36.5505958  10.1648867  34.0830421  36.1208248  10.7683778
  11.6077578   4.3320215  65.3822088  11.9312823   5.0237536  65.9593296
  10.9020698   4.7455108  64.8849535  49.8121595  44.1516209   3.8679823
  49.0465212  43.9987564   3.3142051  50.1499701  43.2761002   4.0566012
  28.9034343   4.5735475  55.4584360  29.6377277   4.6967921  56.0599804
  28.1820798   5.0593048  55.8583355  53.7663269  63.3050728  36.1230874
  53.5576916  64.2194080  36.3146520  54.6981764  63.2243443  36.3265061
   4.1997269  13.6796963  49.6194124   3.5046759  14.2876983  49.8713446
   3.7734923  13.0612159  49.0260839  15.1867366   5.8356619  43.5251904
  15.1922917   4.8785400  43.5360909  15.1403773   6.0854328  44.4480658
  48.8879108  11.4358628  43.2689095  48.5847712  12.3404455  43.3468151
  49.7834206  11.5109062  42.9392719  59.8688459  74.4568157  56.4646149
  60.5311918  74.6161747  57.1370268  59.1766548  73.9768028  56.9192457
  10.8686590   8.7432206  62.2386026  11.1857331   8.7285125  63.1416416
  10.8954191   9.6672881  61.9903803  33.0587244  42.5007057   1.2800993
  32.6827931  43.0034733   0.5575114  32.4691653  41.7538738   1.3844649
  39.3595457   3.7320668  53.9179420  39.8475075   3.8573158  53.1040382
  40.0248003   3.4855929  54.5605326  17.0008373  50.7829332   0.0652381
  16.3454032  51.2821007   0.5525446  16.7095935  49.8737431   0.1343724
  68.3983898  64.1299295  30.8678174  69.0658998  64.3140411  30.2069378
  68.4540844  64.8667717  31.4762497  12.9830575   7.3663032  53.6499929
  13.0603743   8.1840897  54.1413975  12.9191077   6.6879976  54.3223333
  32.0556140  34.6233749  31.5912127  31.8612599  35.5526495  31.7133141
  32.8016543  34.6114802  30.9916210  27.8772330   8.2125086  21.0877299
  28.2305694   7.3357743  20.9369898  28.4937310   8.6175853  21.6977072
  15.3956294   9.0682268  52.4559879  15.4995608   8.9019072  53.3928776
  15.8681655   9.8866951  52.3041630  58.9778709  36.7161942   5.8952463
  58.6151457  35.8523941   5.6990123  58.5739374  36.9621682   6.7274529
  77.2563314  61.3196754  15.6963027  76.7403936  61.6547728  14.9629903
  78.1277132  61.1724043  15.3285599  12.8497326   4.0410730  62.8812361
  12.5295651   3.3142802  62.3469162  12.4407029   3.9080399  63.7363529
  39.8345208  75.1727533  49.8390770  40.5005121  74.8760128  49.2188883
  39.1051531  75.4583025  49.2888784  44.6971083   2.0372173  56.2803030
  45.5875111   1.7526226  56.4862633  44.1947079   1.2249448  56.2167454
   0.7429647   6.4966178  36.7562914   0.9796608   7.1208167  37.4422812
   0.2733560   7.0206010  36.1073375  34.5492554  18.6299729  42.9465151
  34.9252653  19.4015658  43.3701801  34.7222519  18.7604773  42.0141649
  53.7693644  31.3270330   9.6360487  53.6119556  32.0055389   8.9794803
  54.1753721  30.6108236   9.1477513  17.8457165   1.3025336  36.4623094
  17.0068502   1.4556134  36.0274506  18.0373204   0.3797401  36.2950611
  78.9590263  63.3540773  49.6377468  79.7284889  63.3245659  49.0691566
  78.3227062  63.8793755  49.1525745  42.7380848   7.5080019  34.2980433
  42.7381945   7.8787386  35.1805305  42.2595692   6.6835314  34.3846750
   3.5435173  49.8980999  44.6065807   3.9524451  49.9318695  45.4713774
   4.2581800  49.6688747  44.0124893  39.6844792   3.2476163  26.7096329
  40.3308010   3.4845629  26.0445380  39.9626851   2.3849854  27.0173693
  13.5862219  72.6729107  30.7281423  13.5607016  73.2507610  29.9654722
  13.8586390  73.2401657  31.4494205  24.7068191   7.9789168  49.6111536
  25.1052999   7.2052795  49.2124939  25.4240227   8.6090523  49.6802807
  34.7312069  17.8480065  56.5382624  34.4292307  17.3421800  57.2926998
  33.9287472  18.1805706  56.1361551  11.1397421  66.6463757  45.5085182
  10.8638716  67.5323343  45.2735519  11.8011260  66.4201164  44.8546028
  16.4592183   4.5120990  55.4491758  17.2772717   4.5320931  55.9457827
  16.3510227   5.4078960  55.1296854  75.4483128  65.8353567  52.8708076
  74.6403360  65.4917192  53.2520151  75.8465528  65.0821733  52.4345207
  34.5399165  20.6211257  20.4915452  34.1164446  21.4784193  20.5356836
  35.1895642  20.7105017  19.7942650  58.9739180  74.6525335  33.5311437
  58.9480019  73.9188910  32.9168749  59.3857527  74.2927170  34.3167377
  22.8329563  13.1144547  24.0854836  23.0721998  13.4603941  23.2256460
  21.8788242  13.1850994  24.1150594  30.9760213  60.1815128  28.3607936
  30.4279160  59.8376465  29.0661788  31.8670678  60.1402044  28.7080121
  63.9375305  47.8887558  42.5323820  63.1087542  48.3674383  42.5175333
  64.1806412  47.8021431  41.6106319  41.6898441  15.1294160  46.4173841
  41.0596466  14.6682107  46.9708920  41.1649370  15.4803634  45.6979799
  61.0810375  58.8349247  32.2480917  61.3470411  57.9466105  32.4855113
  61.9030619  59.2909479  32.0676804  22.4531412   5.4584748  63.2113791
  21.6535044   4.9986342  62.9557228  22.2843242   5.7530391  64.1063452
   5.2274042  67.8112745  26.9941354   4.8262915  67.4601936  26.1990976
   5.0090390  68.7431431  26.9811654  40.8611774  67.0641756  39.1948056
  41.4283848  67.7716255  38.8881683  39.9748635  67.3617840  38.9896035
  35.6035304   2.0090811  48.7118101  35.4522133   1.2943442  49.3302631
  36.1987877   2.6013747  49.1712570  25.7080340  23.3645701  65.7849407
  25.4518676  23.5043478  66.6965723  26.6613412  23.2833004  65.8137941
   3.1216896  75.8680487  44.1589022   3.3983898  76.7422009  43.8840818
   3.9315021  75.3585386  44.1878176  56.3254356  58.8018513  58.5722685
  57.1991014  58.4208393  58.4841394  55.9374428  58.3417320  59.3165684
  19.9780488   8.2987070  49.4376278  20.8370757   8.5950106  49.1367769
  20.1629615   7.5162077  49.9569845  14.3479836  66.4818430  27.9727054
  15.1141083  66.6064835  27.4125719  13.6761749  67.0451117  27.5884748
  61.0727692  20.6550646  29.4852257  61.0022211  19.7112286  29.6281505
  60.1663351  20.9563541  29.4233513  11.9927406  58.6184883  40.0961161
  11.3083875  59.2627478  39.9149466  12.6082921  58.7120485  39.3690848
  70.3985262  65.8830357  29.1723323  69.9432087  66.6933966  28.9437914
  71.0593271  65.7783461  28.4877753  45.2203321  13.7670493  41.9099617
  44.2877722  13.7626112  42.1257114  45.2447844  13.7689519  40.9530783
  23.8132548   4.8344952  50.5966711  24.5804930   4.5951331  50.0767851
  23.0766630   4.4336587  50.1351547   8.8986939  65.7551861  11.9180465
   8.5611928  66.2074852  11.1449039   8.1246877  65.5921888  12.4570990
  23.8774538  13.6740077  21.4260411  23.6607838  14.4011283  20.8424473
  24.5683146  13.1962061  20.9670782   9.0006274  73.5180902   8.7802792
   9.2946178  73.8953447   9.6094239   9.0059876  74.2533016   8.1673610
  20.4272819  24.4575119  60.3468704  20.8696103  23.7170959  59.9317074
  19.9637258  24.0730500  61.0908699  72.5872087  36.5372372  33.9064384
  73.0493069  37.1985245  33.3912730  71.6634035  36.6709495  33.6944556
  39.0784144   8.2362920  62.4659634  38.5697937   7.5156313  62.8376913
  39.1521072   8.8703376  63.1792545  21.8473864   5.6483167  55.4324722
  21.8365169   4.8367235  54.9250984  22.4277091   6.2299967  54.9414492
  25.5175900  21.9965887  25.5789447  26.1910081  21.3182139  25.6294060
  24.7517705  21.6056037  25.9995222  23.2469320  21.6520238  57.1380758
  23.4818053  22.3275328  56.5018749  24.0840936  21.3651490  57.5028992
  73.8601542  57.9906416  32.9794335  74.5108891  57.6124907  33.5708570
  74.0163088  57.5550985  32.1414924  41.0823917  25.5347991  61.4219904
  40.7396078  26.2391186  61.9721413  40.3032303  25.0806999  61.1011505
   3.8385716  71.3879299  41.8660641   3.3495799  71.7726469  41.1386633
   3.3862194  71.6993523  42.6500416  42.3508596   0.5593562  50.6380129
  43.2639933   0.6638740  50.3706169  41.8493319   0.6877180  49.8328924
   6.3177437  12.5206208  17.1512115   6.5892893  12.9049921  16.3176930
   6.5344876  13.1863976  17.8038943   6.0432917   9.3297398  61.2469435
   5.3348505   8.7010866  61.1086035   6.1357206   9.3809140  62.1982956
  19.2824316  13.2068634  35.6655335  19.2843699  13.8334906  36.3891125
  19.0052462  13.7190437  34.9058795  23.3326077  22.2304487  61.3355970
  24.0458488  21.7012143  60.9786272  22.6756835  22.2477579  60.6396246
  29.0075040   5.3129476  21.4400887  28.9890289   4.8715270  20.5909491
  29.9275565   5.5424213  21.5707707   4.0321410  58.7460756  37.0077682
   3.5883316  58.1844854  36.3722515   3.7525892  58.4110975  37.8597498
   6.9462717   8.3876145  52.4432039   6.5496087   8.6312526  51.6068268
   6.3809729   7.6941192  52.7833986   2.5666305  76.6376114  35.4477358
   1.9217972  75.9605217  35.6526136   2.0431209  77.4074888  35.2253580
  76.1005163  71.1039400  31.1633444  75.6806850  71.5037394  31.9250083
  75.3741455  70.8634186  30.5882168  13.7155938   8.2895797  31.4155531
  12.7901340   8.0794287  31.5404153  14.1728830   7.7498400  32.0603776
  20.0731492  11.4207160  47.8528738  20.3295016  11.1454010  48.7330532
  20.4774213  12.2814822  47.7439022  61.6260195  74.3214655  58.5440922
  61.3898945  73.4890604  58.9534521  61.7277813  74.9285173  59.2771387
  76.3951206  72.7103996  20.9837079  76.1654711  71.8096972  20.7551765
  75.5825186  73.2021952  20.8651781  68.5652971  62.1459913  52.7986288
  69.0726042  61.7286587  52.1024179  67.6715279  61.8300200  52.6660681
  44.4087601   0.7312584  16.8457735  43.9170218  -0.0817738  16.9615376
  44.8589516   0.6216940  16.0081840  38.8029027   4.3096900  31.1135483
  38.0254507   4.7003850  31.5124917  39.3706536   5.0545430  30.9158468
  26.6958189   5.9290189   7.1425062  25.9064150   5.4724419   7.4333841
  26.4731336   6.2624145   6.2733161  74.0062475  59.9686575  48.5059834
  73.8016796  60.2902699  47.6279449  73.7841845  59.0379953  48.4779453
  50.2573967   4.2474395  44.6248722  50.9542847   4.8195478  44.9462271
  50.3054953   4.3234050  43.6719036  11.7140222  48.3103800  27.0368433
  11.5140975  48.7604904  26.2160754  10.9554160  48.4816647  27.5948834
  18.8534093  21.5696311  47.8743553  18.5940802  20.6541252  47.9784203
  18.1087291  22.0690727  48.2093763  31.7062616   4.8179001  37.4569416
  31.8105888   4.7477987  36.5080309  31.4917088   3.9292318  37.7406073
  12.4267268   3.9528981  51.2117052  11.9155788   4.0898037  50.4140759
  12.8072882   3.0810329  51.1056089  66.6293764  69.8074055  41.9770098
  66.6573143  70.6881857  41.6032743  66.0207462  69.3279266  41.4149618
   0.4267570  75.0827599  61.1336470   0.1729880  74.6976042  60.2949047
  -0.2561757  75.7277918  61.3174105   2.3203702  75.5481005  65.3083658
   2.9044771  76.2808561  65.1131296   1.4474961  75.9396124  65.3406048
  35.1271415  18.0068398  32.8663278  35.4879546  17.9595017  31.9810009
  34.7628427  18.8897407  32.9296064  35.6529307  15.1511598  25.9238625
  36.3902473  14.6678865  25.5509758  35.6135535  14.8620570  26.8355107
  35.5683517   4.2737973  35.3210330  35.1754093   4.3401292  36.1913347
  35.7297421   3.3378640  35.2018070  35.8313844  11.5278950  66.7324885
  35.4396674  10.6549921  66.7036381  35.0853154  12.1228495  66.8075878
  29.3568015   7.0390922  43.5531569  30.1165915   7.6210982  43.5383987
  28.6330318   7.5972480  43.8375044  15.0532413  14.9671698  21.1853623
  14.7568178  15.0557065  22.0911908  14.2594540  15.0767756  20.6617951
  35.8831906  17.1916676  53.8255453  35.4648876  17.3401141  54.6736097
  35.9581494  18.0643249  53.4394312  79.2851353  67.2515583  27.9271722
  78.9209700  67.2706699  28.8121843  80.2245331  67.3866177  28.0517530
  18.1589758  71.4697170  56.7817593  17.8624821  70.5938625  57.0291471
  19.0211165  71.3290834  56.3903952   5.0580871  21.1105704  59.2105961
   4.6796060  21.0133839  58.3367872   5.9454405  20.7613969  59.1274548
   3.4115762  11.3414919  63.5352898   3.3665496  10.4835308  63.1132603
   4.0035269  11.2130642  64.2764568   9.3690813   7.5070333  40.9410095
   9.3020862   6.8438125  41.6279459   9.5668852   7.0103520  40.1470232
  56.3559818  22.8215647  65.2505779  56.4983130  23.6530900  64.7983217
  55.4039431  22.7316260  65.2925253  65.0568867  55.2353096  62.3459196
  65.8540726  55.7118797  62.5774431  64.4392252  55.4474688  63.0457163
  23.7080622   6.4151269  57.9424191  23.7128043   5.8571762  58.7201738
  23.4861517   7.2854519  58.2733583   6.5961611  66.7733574  47.4037027
   7.3850119  66.7040825  47.9414272   6.9220018  66.9617510  46.5236092
  28.8520384   9.9683404  46.1224794  27.9132295  10.1232255  46.0181808
  29.0386868  10.2271628  47.0249224  50.0415802   9.7057557  45.2300644
  49.2455959  10.2269423  45.1251841  50.6862593  10.1376927  44.6696615
  57.3491812   4.1676840  53.1753159  58.1001472   4.7278640  53.3714867
  57.7135229   3.4527421  52.6534510  31.9258952   7.7089757  48.2351732
  32.3632050   7.9945356  49.0373278  32.4132204   8.1370932  47.5312853
   0.1848077  76.1303329  32.8859830   0.9361903  75.8821774  33.4245706
  -0.0936513  75.3132725  32.4723315  21.1461663  12.9986691  26.9468856
  21.9761252  12.5218594  26.9398236  21.1994123  13.5607255  27.7198601
  51.0159636  18.2335687  45.4454088  50.6843710  17.3597884  45.2385664
  51.6571808  18.0879438  46.1410141  75.5518246  58.4440660  15.6016755
  75.7860422  58.4306717  16.5296805  76.1729622  59.0559530  15.2066922
   7.2045690  54.4082785  42.3342228   8.0696714  54.8042297  42.4393654
   6.8543422  54.3582869  43.2236481  60.3984785  70.5525112  55.4072905
  60.0628233  70.7253981  56.2868834  61.0345173  69.8474360  55.5279446
  70.7333946  68.0763960  22.1101069  71.5251827  68.1205225  22.6461649
  70.9565306  67.4714804  21.4026356  17.8627813  25.4772687  54.8966599
  17.1183205  25.5582833  55.4928589  18.1474686  24.5682812  54.9911261
  79.9814558  63.5662127  20.8276081  80.5851364  64.2420292  21.1359358
  80.5346107  62.9545593  20.3416729  12.5002909  65.5403471  25.7717562
  13.3886433  65.7171535  26.0812759  11.9877100  65.4197645  26.5710998
  77.9899073  55.4772711  10.6634319  78.5788345  54.7438192  10.4861104
  78.5686302  56.1875153  10.9406686  11.3550627  30.6480694  63.1785774
  10.8573127  30.8063531  62.3764420  11.2805474  29.7050023  63.3245373
  45.3158426  13.0560255  46.2442732  45.8562660  13.1941974  45.4664040
  44.4219065  12.9962218  45.9073305  33.1835413   8.4273458  33.5107160
  33.8177252   8.3218575  34.2198825  33.7181044   8.4969771  32.7197504
  44.2888260  15.2150428  47.5867462  44.5782280  14.4718552  48.1160402
  43.3485842  15.0763714  47.4729919  77.6928520  68.1980324  19.7845185
  77.9742193  67.2857571  19.8539293  78.5035706  68.6892796  19.6517003
  24.5978737  12.1858037  61.4204407  23.7355852  12.5820720  61.2953091
  24.8983002  12.5269890  62.2628021  25.8309126   0.8968524  53.0749512
  26.3084841   1.5274177  53.6139727  24.9747658   1.3013804  52.9349327
  41.3218164  15.6389618  38.0948782  41.1553097  16.3683200  38.6919904
  40.4508877  15.3364146  37.8376222   2.9967633  15.2708220  31.6791248
   3.6087686  14.7836256  32.2307777   2.1550834  14.8348367  31.8122554
  39.6543622  20.1034355  43.7596512  40.0756788  19.4880509  44.3596745
  39.1275334  20.6673980  44.3258905  35.5729485   4.1939232  52.3007536
  36.0513926   4.7668880  52.8999472  36.2050223   3.9853963  51.6128397
  21.9126439  17.8765583  41.8783712  21.7222166  16.9388795  41.9053793
  21.1025572  18.2940030  42.1711683   6.6483057  73.1952047  30.9604883
   6.7660552  72.6363707  31.7286468   7.0824218  72.7215910  30.2509356
  30.7148838  19.7981668  54.3221760  30.7147360  20.4147172  55.0543642
  29.7882009  19.6380126  54.1437340  28.1895089  17.0216799  27.9433990
  27.6962423  16.8437552  27.1426105  28.8038039  17.7133894  27.6976156
  34.1534615  20.4560471  32.9641843  34.6503377  21.0667515  32.4197721
  33.3946872  20.9600806  33.2581902  39.7567105  18.6259198  32.8013134
  39.5841694  18.4247184  33.7210846  40.5927992  19.0918612  32.8108215
  33.2662129   2.1519411  40.4684973  32.3634410   1.9785807  40.2017021
  33.2739186   1.9840503  41.4108276  33.2380915  20.5786061  64.1219807
  33.6785436  19.7711921  64.3871546  33.8162494  21.2779975  64.4266415
  45.6268454   0.7154195  36.5616870  46.1520147   0.4722190  37.3241067
  45.1560640   1.5023097  36.8362737  35.6620979   1.5928932  34.7941041
  35.5062199   0.6681405  34.9858499  36.1391735   1.5883303  33.9642787
  32.4616718  76.4410830  34.7223711  32.0871544  75.7995081  34.1187549
  32.2331333  76.1134386  35.5922294  22.2192693  14.6245050  34.4999242
  21.3931870  14.8082244  34.0526342  21.9615269  14.3849540  35.3901005
  23.5960674  11.7425895  47.5162411  23.2499242  12.3971188  46.9096041
  23.1685925  11.9388950  48.3498859  21.5463591  75.0341749  47.3076200
  20.8943200  75.3214693  47.9467869  22.3579144  75.4585075  47.5860977
  70.4146242  74.5613337  36.4529014  69.7901058  75.2719879  36.3073492
  70.5179453  74.1534376  35.5931473  17.3148847  20.4040003  40.7195425
  16.7832875  19.6514082  40.9788561  17.1095455  21.0772014  41.3682890
  38.3416891  15.9730363  53.8928032  38.7530637  16.7643499  54.2404032
  37.4088502  16.1844325  53.8559914  47.5146532   1.5329546  61.8686819
  48.3501959   1.8245181  61.5038681  47.0621538   1.1218321  61.1321640
  14.8995197  72.7598381  42.0024490  15.0616813  72.9562712  42.9251337
  15.3166199  71.9098806  41.8616247  15.2282405   6.7027551  36.6719627
  15.9252560   6.0624993  36.5288830  14.4208562   6.1898267  36.6363668
  80.0156403  53.1654024  54.8453236  80.6049442  53.1536102  55.5995178
  79.8187542  54.0922594  54.7096682  15.9843338  68.7248564  50.5985928
  15.1165700  69.1286421  50.5853367  15.9257066  68.0102634  49.9644375
  32.9600096  16.7799056  60.6523561  32.1031833  16.7191839  61.0747194
  33.4262586  17.4502873  61.1517859  38.8234115  17.3428261  35.3894854
  39.4071412  17.7284348  36.0427833  39.2792249  16.5535092  35.0971770
  55.9226418  52.1849537   9.8684579  55.3313971  51.7799711   9.2339092
  55.6845999  53.1120443   9.8598605  31.3052225  13.9534640  59.5088243
  30.7732463  13.6688304  58.7657166  32.1912909  14.0279889  59.1544819
  18.4096766   5.8400267  48.6527157  17.4793684   5.9592056  48.8439083
  18.4406567   5.6679571  47.7116203  48.7478590   3.5823482  14.6613812
  48.0730677   3.0277559  14.2698228  49.0691328   3.0774075  15.4084086
  23.4244823   8.7719089  43.7567425  23.6287618   8.0856228  44.3919659
  23.0024695   8.3098948  43.0323935  17.1797299   3.2166958  30.3559017
  16.7883182   3.8335511  29.7374201  18.1194472   3.2653722  30.1804233
  15.5088568  57.6805735  51.6992903  14.6415412  57.5984907  52.0958471
  16.0918391  57.8679466  52.4349928  55.5942059   6.4540076  38.0433559
  56.3678741   5.9291238  37.8380156  54.9651909   6.2322366  37.3567748
  67.6227999  30.6940460   1.7084447  68.3533239  30.1009130   1.5330727
  67.8437519  31.1056876   2.5438857  53.5595560  15.1453602  20.1156569
  54.2106438  15.8145547  19.9047196  53.3390045  14.7513139  19.2716682
  10.0404179  10.7037473  38.5266900   9.3528229  10.0399578  38.4735012
  10.1021957  10.9104109  39.4592690  28.1483984  25.2283931  37.2720337
  28.8902426  24.8370028  37.7332425  27.3948550  25.0482440  37.8341293
  36.0072684  72.1500683  49.4622898  36.8617988  71.8186808  49.1862679
  35.4744840  72.1301889  48.6673164  33.1137037  19.5448697  29.9515557
  33.8319111  18.9295638  30.0992370  33.5270691  20.2991462  29.5315194
  12.9149640   5.0275791  37.1081209  12.4423492   4.2433804  37.3872256
  12.4110842   5.3590679  36.3648510  48.0515146  17.9035294  27.6556873
  48.8715124  17.9809856  27.1679997  47.9539347  18.7479198  28.0958200
  38.0713844  16.0198593  47.2193575  38.3806586  16.3214493  46.3651752
  38.6641860  15.3045273  47.4498272  38.2007456  15.7442236  59.5026588
  38.4071469  15.7940650  60.4360104  37.3343086  16.1440206  59.4272804
  11.3174403  11.4283919  61.7660046  11.3128328  11.6754222  62.6907682
  11.6487896  12.2035861  61.3126659  72.8256083  64.2506886  14.2399037
  73.4913683  64.8564482  14.5655596  72.9304075  64.2684507  13.2886231
  13.8336849  29.1188455  39.1665959  13.6023605  29.7061801  38.4470415
  13.0497384  29.0918016  39.7151637  52.1487141   5.4916734  22.5171542
  53.0253887   5.2129024  22.2526622  52.1224451   5.3357655  23.4612060
  41.1644650   7.2270125  61.0499859  40.5109072   7.4760473  61.7035007
  40.7737732   7.4777752  60.2129030  13.5249329  61.7312908  48.6382532
  14.3174314  61.4119911  48.2067156  13.8338542  62.4191189  49.2279100
   8.1171000  26.4108443  47.1741819   7.6605946  26.6225910  47.9884291
   7.7389812  25.5760860  46.8977118  22.2905827   1.8517786  27.1530724
  22.5599813   2.6890194  27.5308084  22.4726200   1.2097690  27.8393078
  43.8510895   7.3730862  26.7392516  44.2189884   8.2442486  26.5910721
  44.5973063   6.7799604  26.6521025  13.7619293  44.8542547  22.5557637
  13.7890601  44.1775703  21.8793058  14.4111371  44.5741034  23.2009602
  22.7684236  10.7087493   9.9212158  22.5843453   9.8269045   9.5976454
  22.5909114  10.6610966  10.8606040  25.8187771   4.2931232  25.8054829
  26.3506436   4.8442879  25.2314019  25.6693959   3.4943843  25.2995849
  30.5959773   0.5532320  21.3363719  31.4675236   0.1951249  21.1678529
  30.2120757  -0.0433100  21.9790149  61.0978746   2.1092825  42.1966314
  61.0835028   3.0181342  41.8966055  62.0199871   1.8565594  42.1510315
  49.9909925   2.4451695  60.8766603  50.7258463   1.8509966  61.0289001
  50.3208542   3.0747086  60.2354908  41.8101406  16.1161745  49.8401022
  41.1727047  16.0384262  50.5499315  42.3342419  15.3174710  49.9002886
  25.1756620   4.1917649  36.3026834  24.2953897   3.9242047  36.5668106
  25.0321984   4.8903662  35.6642413  27.7618146  15.6163859  16.6353846
  27.4412966  15.9468913  17.4745905  27.2888160  16.1288440  15.9797239
  17.7043402  43.6864662  32.5064874  17.8303087  44.6342754  32.5514531
  16.7884445  43.5784721  32.2501636  47.6205635   7.5765681  46.6306019
  46.8152809   7.1259707  46.8849850  47.9533005   7.9511619  47.4461985
  49.1827822  10.2606142  48.7100935  49.3176985  10.9034586  49.4063568
  48.4917116  10.6382930  48.1660271  43.5437107  28.0383110  20.9442139
  44.0119457  27.5314713  20.2808118  43.7031889  28.9512753  20.7048535
  32.6118970  12.1420920  13.1511080  33.3764124  12.5074625  13.5963631
  32.5251698  11.2589085  13.5098529  12.0880258  14.0083611  36.4703012
  12.0111406  13.2167733  35.9376574  11.7206657  13.7623978  37.3192883
  81.8321609  52.0784187  20.7598710  81.8798447  52.0961285  19.8040235
  81.5333843  51.1932802  20.9684181  22.5210905  67.6556969  24.5924830
  21.9059205  68.3325481  24.8747396  22.9505205  67.3708868  25.3991461
  64.0287685  38.8995028  61.6120577  63.1648445  39.2517734  61.3980913
  63.9156771  38.4932804  62.4713707  41.2421560  17.4073780  40.2058792
  41.8689871  18.0783021  40.4763842  41.4805603  16.6357672  40.7196999
  11.4253449  12.6730263  33.2171798  12.0507395  12.0965278  32.7781320
  10.9617364  12.1015704  33.8293362   7.0141733  74.7873831  65.7671452
   7.9378217  74.9562836  65.5811930   6.7616361  74.1147232  65.1347017
  22.2608399  19.4705546  37.1463919  23.0369925  19.4964790  37.7059889
  21.8403935  20.3199482  37.2805071  36.2779880  15.1361752  44.5027399
  35.5089211  14.6440208  44.7900629  36.4219952  15.7812047  45.1951504
  22.8941703  73.0274200  50.6723166  23.0683208  73.8411140  50.1992321
  23.3917475  73.1120396  51.4856339  35.9517646   4.4590750   9.5860487
  36.5181971   3.9801496   8.9810556  36.1613250   4.0976906  10.4472792
  19.6283805  26.3792062  45.5531597  20.1924419  26.8060422  46.1980438
  20.0876975  25.5690074  45.3321600  18.7950587  20.1643062  36.0540342
  19.5005739  19.5177376  36.0333157  18.4707677  20.1938725  35.1539254
  32.2496319   6.3703585  51.4111137  32.7313161   5.9512109  50.6980038
  32.9295444   6.7372602  51.9762135  46.1505079  18.1540048  61.6467571
  46.4097977  17.3494077  61.1977291  46.6038799  18.8502836  61.1714888
  28.3350086  21.0661960  44.1664696  28.4745598  20.1200700  44.2065334
  28.5389185  21.3002491  43.2610035  12.6196647   7.1794468  44.3926811
  12.0202565   7.9212981  44.3114471  12.5456834   6.7190927  43.5567188
  28.1435347  21.7175007  56.8104362  27.3100758  21.5249801  57.2399902
  28.7026691  20.9714437  57.0272255  26.4557695  67.9700041  34.8258829
  26.1086798  68.1852102  33.9601779  26.2562323  67.0407772  34.9397111
  43.6474943  17.5598466  46.2216330  43.8615894  16.6274440  46.2535429
  44.2022371  17.9561031  46.8935490  31.0168576  33.8048577   8.7178242
  30.2527666  34.2128873   9.1251451  31.5758133  33.5551524   9.4536549
  37.8037357   6.9515347  38.6892176  38.1242967   6.3782448  37.9929352
  37.6910734   6.3726997  39.4431996  25.0587821   8.4646088  27.6647735
  25.3944707   8.5844266  26.7764091  25.7119870   7.9130483  28.0952811
  23.0392599  60.7507181  18.5386801  22.7507257  61.6612482  18.4760892
  22.5212455  60.2894354  17.8790522  39.7008228  22.0712519  61.3594675
  40.5117178  22.1672940  60.8600187  39.2346191  22.8955436  61.2200880
  63.7785578   1.9200601  42.1980524  64.1772747   1.2734190  42.7803850
  64.4763708   2.5532597  42.0296955  66.5706015  41.3839293   4.9508363
  66.5395594  42.3302221   5.0915438  65.6630230  41.0969019   5.0515974
  30.8327365   4.7698870  34.6542740  30.0845408   4.6921811  34.0623307
  30.7403660   5.6391633  35.0442195  56.4228773  24.6271968  53.5834455
  55.9609795  23.8584757  53.9180326  56.5546703  24.4415736  52.6537132
  38.3641648  18.9853084  24.4188094  38.0067706  19.2312562  25.2720451
  39.2676520  19.3008888  24.4375896  38.0746293  33.2882977  18.2603204
  38.2267261  32.6895618  17.5291467  38.2175446  34.1594267  17.8902602
  34.8911381  23.1612825  41.8707848  35.2359653  24.0225744  41.6351891
  34.1989160  22.9970717  41.2303972  32.3393178  13.8677478  28.7465668
  33.2024050  14.2761755  28.6795092  31.8070269  14.3242919  28.0950546
  69.9368000  40.4144955   5.9963441  70.3385925  40.4118776   5.1275587
  69.0341568  40.1349545   5.8436221  52.9668951  19.9166620  40.8843899
  52.8766584  20.8451343  41.0989380  52.7684021  19.4613695  41.7026472
  39.5559382  20.0290442  40.6585217  39.9078393  19.1650295  40.4443264
  38.9804482  19.8743010  41.4075851  30.2815008  19.7528803  47.4159479
  29.5951033  20.4190826  47.3803520  30.4172873  19.4998693  46.5028286
  32.8800631  16.4700484  44.6498728  33.1909347  15.5909705  44.4335127
  33.1720567  17.0141208  43.9184666  49.5675182   6.1892194   7.9815006
  50.1673603   5.4576123   8.1269985  49.6232891   6.3613856   7.0415646
  11.2042475   8.9637637  55.2865505  10.6809711   8.2222629  54.9822664
  10.6536114   9.7291780  55.1217079  14.4635344  68.9567947  58.9194298
  14.1281605  68.0962944  59.1710186  14.4092834  68.9649677  57.9638052
  14.3299341  52.9546309   3.4632209  14.4630671  52.1328783   2.9907456
  14.9042034  52.8880215   4.2261165  40.3963470   8.7650013  45.6635141
  40.0649881   9.3334317  44.9683046  41.3466454   8.7759161  45.5492687
  30.9956050  73.6193132  22.7649474  30.5361080  74.4110012  22.4850798
  30.9326601  73.0280256  22.0148468  54.4483757  14.3373513  63.5187864
  53.8255787  15.0147080  63.2550859  53.9592028  13.7873292  64.1306829
  37.8973103  21.9639397  44.9165678  37.6885343  22.7809548  44.4636583
  37.4209404  22.0207644  45.7448673  17.1709561  17.8487170  56.8097496
  17.0494282  17.5916839  55.8957481  16.7244923  18.6922669  56.8827248
  75.0587130  73.7685966  41.4022064  75.7834435  74.0771961  41.9460487
  75.1788139  74.2179537  40.5656147  31.5460992  21.1988020  38.8452649
  31.3942695  22.1412277  38.7744641  31.2312603  20.8424044  38.0145478
  52.8571558  72.6983261  32.4646711  52.9593468  73.6418390  32.3398733
  51.9609928  72.5150967  32.1826291  41.1120129   5.3489041  33.6718631
  40.3359127   4.7939768  33.7490463  41.2900972   5.3822535  32.7319670
  73.3510399  58.2227564   2.6192805  73.7782383  58.3330154   1.7698228
  73.2730055  59.1118002   2.9653245  26.5014172   0.3719271  36.8911695
  27.1746469   1.0428351  37.0046401  26.9894958  -0.4236592  36.6789103
  26.8047285  74.7624588  45.6588268  27.7502060  74.7686720  45.5096149
  26.4238167  74.8543215  44.7854996  19.8955727  13.4146202  44.8430061
  20.4545355  13.1574428  44.1097593  19.0517604  13.0028450  44.6568489
  41.9842577  17.4234343  64.0002966  41.6047287  16.5497279  63.9063549
  42.5487280  17.3578143  64.7705555  23.6246490  69.6871376  53.0346012
  23.1490636  69.7878313  53.8591719  24.5329285  69.8934889  53.2552338
  31.8894124  12.4574423  25.1431632  31.1718416  12.5707471  25.7664490
  31.7943501  13.1887662  24.5329499  22.5787878  30.0131416  26.8992972
  21.7818666  29.7987413  27.3842525  23.0328608  30.6479883  27.4533916
  47.5449800   1.6983774  52.5906324  46.9975615   2.4790099  52.5058985
  48.4366798   2.0141104  52.4442959  37.8654027   0.7013178  12.6823294
  38.5842681   0.1065326  12.8961003  37.4266243   0.8570412  13.5186648
  29.8925400  18.7162769  64.2580271  29.9397898  18.2810616  65.1092577
  30.3324747  19.5555449  64.3933821  41.5006304   9.3111992  18.1498075
  42.2330332   9.7204185  17.6889837  41.8380260   9.1364616  19.0283668
  28.1248188  70.4624605  49.0241861  27.8091431  71.1665344  48.4577417
  27.3346639  70.1162529  49.4389486  50.0397825   7.4310541  17.8751791
  49.7388935   7.2351789  18.7624967  50.9919739   7.3444420  17.9205704
  33.9479852   0.2311631  50.6404066  33.1729984  -0.1410306  50.2195740
  33.6602783   1.0870658  50.9580326   9.2346996  76.6662502  27.9516602
   9.3744546  77.3710728  28.5840583   8.6193174  76.0745525  28.3845901
  32.5427675  22.4010682  52.4551392  32.9816580  22.4489665  51.6058350
  31.7734075  22.9624104  52.3591566  19.7316444  11.4366841  37.7008057
  20.2268195  10.6212294  37.7786922  19.8519993  11.7038786  36.7895699
  37.0235062   6.8744659  47.3009539  36.6843438   6.3341868  48.0146027
  37.3576450   7.6603055  47.7334356  36.1403894   5.0266236  31.8525672
  35.7129598   5.4600382  32.5912738  35.4430699   4.9096599  31.2073565
  55.6911087  70.2188921   9.3330407  54.7490740  70.1928568   9.1653460
  56.0093737  69.3632889   9.0451348  36.7403579  22.2302246  51.0701132
  37.4702930  21.9542575  51.6244316  36.0476851  21.5952778  51.2525368
  23.0617285   1.0637182  49.1812992  23.5513401   0.4510585  49.7300816
  22.9609251   0.6085397  48.3453083  45.9286022  26.9540358  15.0996721
  46.4705515  26.9717598  14.3108702  45.1001453  27.3505020  14.8300314
  30.8983135  18.0681586  23.8913989  31.7600393  17.8319490  23.5480833
  31.0118365  18.9546216  24.2342234  32.3275208   4.6389341  45.0192356
  32.8794956   4.1630548  44.3986750  32.3889184   4.1342893  45.8302784
  23.4808826   6.9740218  45.7776690  24.1398835   7.1741849  46.4424086
  22.8744936   6.3756537  46.2141085  77.1268654  31.0932374   1.6764265
  77.4383402  31.7856479   1.0935172  76.7028427  30.4627609   1.0942441
  26.6679692  14.7539377  56.7764997  25.9326196  14.4356525  57.3001289
  27.1829319  13.9700305  56.5853500  11.0455465  24.3776226   1.9819571
  11.6106462  23.6612701   1.6925955  10.8942842  24.2031121   2.9108799
  31.9008923  12.6745856  39.3529344  31.6894102  11.7578411  39.1766167
  32.7793241  12.7916062  38.9911437  24.4522095  15.6876934  43.3663273
  24.5456219  15.8421338  42.4263000  24.5811844  14.7446978  43.4681034
  23.1827593  74.8373699  38.1356215  23.7482572  74.9374008  37.3698306
  22.3434305  74.5484495  37.7774549  32.3243070  66.0891199  33.9496493
  32.2890973  65.3024912  34.4939017  32.5842977  65.7708168  33.0851746
  30.0821710  76.5301466  66.2626696  30.1345468  77.2242069  66.9197607
  29.3365097  75.9963465  66.5370417  21.8477273   8.6229283  25.8978391
  22.7109051   8.9120179  25.6018925  21.3205457   8.5869032  25.0997066
  47.9685402   3.9287141  46.1432552  48.1849289   4.0033969  47.0726824
  48.7740326   4.1761276  45.6891680  66.7954111  57.1114826  15.2958906
  67.3366928  57.7370548  15.7774615  67.3762655  56.7630863  14.6195316
  29.5400190   5.0178295  48.7924004  30.4433346   5.2600449  48.9963245
  29.1822267   5.7837141  48.3433580  27.7403569  12.3343122  55.9830093
  28.0879760  11.4427412  56.0052299  26.8929124  12.2501481  55.5459881
  77.6411295  74.5244026  43.0106115  78.3118010  75.0305557  43.4691334
  78.1074953  74.1123486  42.2833252  48.1666231  11.1189306  54.4068956
  47.7147722  10.6361794  53.7147856  48.3253098  10.4668236  55.0893927
  38.0991340   4.0463680  60.0254679  37.3521614   4.4085974  60.5019712
  38.2982969   4.7026002  59.3576908  42.3536873   0.4060607  25.9537482
  41.6457748   0.4184289  26.5979028  41.9306612   0.6428637  25.1283956
  11.2990427  76.0170984  47.1643925  11.5771580  75.1411676  47.4320269
  12.1159852  76.4999676  47.0392084  27.7369380  19.1899478  38.7386203
  28.0855966  19.6829081  39.4813585  27.9511571  19.7249198  37.9743266
   4.9307105  49.1982794   6.2014598   4.1440994  48.8981247   6.6568524
   5.1913667  49.9908400   6.6706491  17.0493579  24.7801828  50.4042578
  17.1584523  23.9138746  50.0120354  16.8227005  25.3492856  49.6687460
  81.0201740  72.8309727  18.8115168  81.4115906  73.0651379  17.9699755
  81.7632675  72.7652311  19.4112813  20.5057311   4.2932549  11.6127861
  20.3936720   4.1596252  10.6716073  21.3832283   3.9594251  11.7992961
  67.9790354  52.3392200   1.2022152  67.3093843  51.6817522   1.3907276
  68.4358454  52.4612808   2.0344776  48.4701395   9.0742272  60.1383066
  48.4065056   8.8444060  61.0653257  47.6002979   8.8876605  59.7850370
  24.1605639  70.4496861  45.5509281  24.4807243  69.8703766  46.2423944
  24.9329305  70.6344891  45.0165749  44.3306780  34.7071338   9.0631902
  44.9562550  34.8178458   8.3472085  44.5871687  33.8846684   9.4803190
  28.9323020   1.7297456  24.2084837  29.5238566   1.4579387  23.5067606
  29.3287396   2.5266069  24.5607352  21.7954731  38.8403082  29.9044800
  22.2019124  38.4919524  29.1109514  22.2517085  39.6664476  30.0644040
  33.5896778  74.4765282  40.4188967  32.8722954  74.7956800  40.9663773
  34.0093064  73.7967873  40.9462452  61.7332172  14.6398926  33.2127142
  61.0654354  15.2917981  33.4256053  62.4578476  15.1490796  32.8495789
  61.3910007  67.4341154   0.0240957  61.0478783  67.9936266  -0.6726444
  61.0307026  67.8059530   0.8291771  39.4301629  16.0244489  51.3561678
  39.2181540  15.8001888  52.2622490  38.7654281  15.5731332  50.8359003
  37.8644347   4.3869242  34.1824675  36.9839954   4.4614241  34.5505810
  38.0156493   5.2279437  33.7511301  31.1256027  74.9732494  36.6708422
  31.5172386  74.2757320  37.1965098  30.4262900  75.3246212  37.2219586
  53.5481787   6.3760507  35.7862663  52.6269054   6.4771038  36.0255980
  53.8318253   7.2585511  35.5475879  52.2405243   0.4709890  31.0543275
  52.9757357   0.9237126  30.6411242  51.5384150   1.1213320  31.0724497
  24.2381907  70.1182890  21.3934422  24.6052933  70.5204916  22.1806550
  24.0899777  70.8517838  20.7965732  38.8234735  27.9700828  52.8170395
  39.7426295  28.1148767  53.0415773  38.6853480  28.4906578  52.0257378
  29.1474867  13.7638760  61.6614485  28.5263062  13.7433457  60.9334755
  29.9900246  13.9604104  61.2518930  49.8430395   6.1762613  49.6463346
  49.1024971   6.5358841  50.1346970  50.1352119   6.8974382  49.0888643
  53.8137054   9.7912848  43.2771254  54.5260429  10.4257143  43.3565331
  54.1827202   9.0813547  42.7517080  29.5852447  15.7197869  24.5490599
  30.1695943  15.1315272  24.0708160  29.9821091  16.5850735  24.4490170
  61.0768986  24.4279122  40.3178883  61.7129755  24.1086745  40.9579849
  60.7379341  25.2373219  40.7002354  21.9442940   4.4577843  41.1116791
  22.1598721   3.6164907  40.7092094  21.0138750   4.3894121  41.3258696
  17.5029492   7.3210609   1.8102489  16.7046571   7.8153950   1.9962485
  17.1942544   6.5129626   1.4004722  26.2603760  72.3825645  33.7249684
  25.3444195  72.5819874  33.5313535  26.7090321  72.4779749  32.8848267
  20.1431179   7.0450461  34.3042779  21.0116959   6.9023556  33.9281893
  19.9138594   7.9376930  34.0457177  29.9653149  14.6808088  27.0675468
  29.9487114  14.9678254  26.1545420  29.2994046  15.2161527  27.4990559
  39.7831655   6.9604838  31.4454269  38.9590287   7.3839605  31.2052250
  39.8151684   7.0228672  32.4000549  13.1822670  67.8107786  31.6848135
  13.2495368  68.7454844  31.8798256  12.4285102  67.5134325  32.1943927
  27.0303392  19.0178180  48.8488102  27.9809570  19.1291654  48.8614273
  26.7390704  19.5309401  48.0950832  58.8903809  12.1123052  32.0480204
  59.8220158  11.8942785  32.0753574  58.8637781  13.0079675  31.7113972
  17.5980613  77.0764472  53.1427860  18.2621238  77.0295869  53.8305807
  18.0958697  77.2260096  52.3390150  33.7805486  18.3213210  39.1069508
  33.1750059  19.0223169  38.8657951  33.2329321  17.5377059  39.1548634
  27.1999598  71.1403608  56.5618896  27.9049945  71.7810011  56.4684010
  27.6384258  70.3434896  56.8601847  71.3031244  56.1173773  13.0607879
  71.2792253  56.9729042  12.6321423  71.6351366  56.2991714  13.9399648
  67.1220016  11.9528461  56.9052410  66.7190838  11.8105471  56.0487080
  67.6437426  11.1650801  57.0583487  64.1393328   8.2274956  42.0461178
  63.6510611   7.4942964  41.6716337  63.4697437   8.7804174  42.4488068
  41.2876177  15.9076822  34.8954010  41.5818882  15.1010430  35.3184509
  41.7382717  15.9134197  34.0509439  48.9075947  28.8149834  50.6128120
  49.2350769  29.7028112  50.4687595  48.6050177  28.8157082  51.5209293
  37.0552039  12.7661633  48.3501244  36.1207438  12.5659740  48.4043169
  37.2883153  12.5771880  47.4411774  27.3959875   5.6933999  32.2194576
  27.9706836   5.6176555  32.9811788  26.5296769   5.8640909  32.5890589
  36.2405062   2.9247305  42.9373026  36.2705159   2.0255579  42.6104689
  35.4238343   2.9717693  43.4343576   8.3458555  45.0444126   4.5801184
   8.1829870  44.1234159   4.3764731   7.5600481  45.3291416   5.0466692
  42.2489262  29.2446923  63.0963564  42.2592068  29.9415493  63.7524939
  41.3198090  29.0660524  62.9512310  17.2020590  45.0767422   7.1217483
  17.9145932  45.4511404   7.6397783  17.4517691  44.1610813   6.9974953
  37.6180577  25.3478146  56.4448547  37.9023623  26.0151100  55.8202600
  37.9371023  24.5238137  56.0767984  40.8604574  34.6051574  59.5174599
  40.4600000  33.9326549  58.9664555  40.1200771  35.1037836  59.8630571
  62.5085878  15.6572318  45.9267521  63.3146477  16.1693060  45.8613253
  62.0737982  15.9940255  46.7101765  56.9047594  20.4615617  32.1831584
  57.3629904  20.2586555  31.3676286  57.1899557  21.3482189  32.4039197
  59.2361498  15.7299697  48.9443493  58.9563179  14.9961972  49.4916201
  60.1786327  15.7971716  49.0974569  66.6128588   8.2277310  36.1155176
  67.4577904   8.3283871  36.5539122  66.2974930   7.3690957  36.3975167
  39.4204426  23.9747906  41.8831444  39.1420364  23.3974004  41.1722660
  39.8130774  24.7273064  41.4406633  36.1133933   1.7204200  63.4731245
  36.9770408   2.1112888  63.3405781  35.9478354   1.2272251  62.6696444
  55.8088541  22.9736018  27.6259208  55.0762892  23.5700798  27.4716735
  55.8877468  22.4757147  26.8122149  72.0952034  22.0299053  53.4859753
  71.7101049  22.9017377  53.3974314  72.4529600  22.0151186  54.3736792
  36.3404489  34.6639252  59.2059278  36.9026470  35.3281999  58.8073015
  35.7236719  35.1624489  59.7419262  46.4999771  27.1328139  50.8331490
  47.3941946  27.4740458  50.8203316  45.9891701  27.8158689  51.2676001
  33.7444878  76.7062521  23.8767385  34.6835589  76.8875408  23.9156270
  33.6863708  75.8184099  23.5237527  45.1565790  10.6587338  41.9658041
  45.0912523  11.5936065  42.1606827  45.8214664  10.3334486  42.5727224
  57.5684929  32.7781725  51.3197565  56.8724680  33.3864689  51.5682650
  57.2543240  31.9224763  51.6118479  50.8675146  39.2150450  52.1624756
  50.8411789  40.0679111  51.7287064  49.9627256  38.9039278  52.1342325
  66.3948011  33.3240104  47.6209641  65.8490705  32.7000475  48.0995846
  66.9852400  32.7773523  47.1025229  43.7141466  41.7386580  47.1316433
  43.5765076  42.6858902  47.1380854  43.2162428  41.4191628  47.8841352
  57.0272017  16.7031574  47.4680328  57.4540281  16.2334204  48.1845522
  56.0909557  16.6041434  47.6408720  52.9350710  37.8038549  55.9437132
  52.8393936  38.5031271  55.2971077  53.8234091  37.4735403  55.8096027
  60.3750420  48.8575220  45.6068087  59.7966623  48.4070730  46.2222815
  59.7892189  49.1883850  44.9259472  74.2041779  44.1587973  48.6017942
  73.9525270  44.9030447  49.1486073  74.6815872  44.5497990  47.8700638
  61.3983059  20.3291965  53.3093834  61.3432884  21.2233543  52.9722071
  62.2561407  20.0170159  53.0214739  67.8227663  27.0842624  16.6650927
  68.6059761  26.7135119  17.0717418  67.6924992  27.9196548  17.1138489
  57.3831272  29.2788982  46.1761236  57.8602266  28.4630275  46.3276672
  56.5422583  29.0007472  45.8130789  44.2734098  38.0536342  46.2643480
  44.7762060  37.7013111  45.5299807  44.4160795  37.4278355  46.9744539
  53.4669590  45.1839495  47.1472931  53.3342075  45.7795906  47.8847313
  52.6191759  45.1594782  46.7035580  10.1099539  38.6238575  33.7885475
  10.8890808  39.0446949  33.4251046   9.5473301  39.3509269  34.0551138
  38.2636404  75.2020979  66.1728573  38.7443900  75.2184105  67.0004129
  38.0435324  74.2798042  66.0418701  50.3194046  31.3245893  50.1723623
  51.2049532  31.2787414  50.5328274  49.8345280  31.8648386  50.7962608
  61.3515997  46.2480688  47.4067307  61.1876202  45.3215647  47.2308493
  60.4796743  46.6333628  47.4934959  46.5044785  42.0130587  48.7013102
  46.0328865  41.3718081  48.1696796  46.1703014  42.8603601  48.4069681
  66.6729832  54.3119144  12.4883866  65.8804560  54.7001028  12.8591239
  67.3766422  54.6049500  13.0673766  58.4318972  35.8070016  54.5490599
  59.0430355  35.1960516  54.9607420  58.5294056  36.6170645  55.0495815
  56.0780573  41.0520411  45.2486515  55.9476757  41.9384336  45.5856085
  55.5562305  41.0214710  44.4467783  63.6937380  75.2370310   0.1008420
  63.5559893  74.4465208   0.6227142  62.8163290  75.5999470  -0.0203212
  58.5805416  48.8482523  43.6330843  58.8149214  48.9211702  42.7078915
  58.0621290  48.0453539  43.6862755  62.2626829  34.0220833  46.1614370
  61.7207813  33.2487059  46.3178349  62.5642872  33.9245415  45.2582502
  72.0463705  25.0537682  57.2585487  72.2176838  25.9068537  57.6574612
  71.9486094  24.4575071  58.0009460  55.6620646  41.3578081  48.4950352
  54.8694324  40.9336519  48.8237619  55.3632307  41.8795204  47.7502251
  56.5457344  10.9709585  61.1998987  55.7686234  11.4893854  60.9911823
  56.2317133  10.0670087  61.2222147  59.3157387  44.2398643  44.7681475
  58.8266754  44.6838808  45.4608917  60.1017189  44.7732973  44.6501827
  68.4335327  45.5738735  47.3095560  68.8604879  44.8119211  46.9179296
  69.1468334  46.1913633  47.4712276  68.8156080  41.9299650  51.9421387
  67.8887749  41.8504715  51.7165565  69.2624092  41.9988489  51.0984230
  56.3445234  47.9585505  40.1526165  56.5684319  47.6749229  41.0389900
  56.8722343  48.7447071  40.0122213  78.1662464  46.0035944  40.4162979
  78.5426664  46.5150499  39.7000933  78.9158154  45.5607271  40.8140993
   5.5231804  69.5993900   8.5512155   5.6646824  69.8040628   9.4755095
   6.1353129  70.1676321   8.0836374  62.6552725  30.7825971  59.4020796
  62.9489231  29.9323583  59.7293329  61.9843149  30.5707264  58.7531137
  53.7277222  44.1248178  53.1194305  53.0524778  43.6217737  53.5746479
  54.0230274  43.5472345  52.4155712   7.9069430  37.8061461  56.4457893
   7.2684866  37.1790886  56.1060762   7.6676857  37.9168534  57.3659658
  50.6339359   6.5535742  60.5526161  50.2279139   7.3889589  60.3212929
  51.0570145   6.2612134  59.7453022  72.0438623  63.6934328  65.3465414
  71.9952202  62.7380133  65.3142452  72.7372217  63.9190531  64.7263956
  55.4772520  43.5684919  46.1791277  56.2655830  44.0941620  46.3149118
  54.7634602  44.1201305  46.4991713  71.6194868  34.9990797  51.0494804
  72.1613598  35.7315230  51.3429642  72.0548296  34.2228246  51.4018154
  66.8626690  40.1282787  43.8859367  67.4012136  39.5163202  44.3876457
  67.3835707  40.3225040  43.1067276  65.6916142  34.4319820  39.8353028
  65.0155401  34.6204400  39.1844296  66.0435772  35.2904844  40.0705242
  73.6463070  41.2381744  54.7331619  74.0652180  42.0654869  54.4959021
  72.9334211  41.1409760  54.1018295  11.0925794  37.9108119  46.1699724
  12.0043492  37.9403949  46.4598560  10.9522617  36.9993591  45.9134579
  80.3253269  43.8207531  24.7535849  79.4591665  43.9235163  25.1478529
  80.7209873  44.6902084  24.8147082  68.2274389  31.5406513  46.2549782
  68.9200258  32.1994233  46.2041998  68.5141230  30.8455801  45.6625938
  81.7454052  31.9324255  62.3529720  81.4013290  31.3005662  62.9843187
  81.8841648  32.7300072  62.8636980  63.6571932  43.1607342  51.6145515
  63.6514568  43.7261438  50.8422089  63.3255768  43.7159014  52.3202801
  61.8795586  18.3409035  21.4616179  61.7877197  18.9279020  22.2121048
  62.8240108  18.2147169  21.3704062  13.9578557   1.0220168  23.9938807
  13.4161258   0.3170675  23.6391878  14.2959452   0.6725736  24.8183894
  74.1255331  57.4906969  44.6759319  74.3520546  57.0728350  45.5067825
  74.6175194  58.3117771  44.6788168  16.6605151  59.8179579  37.1456122
  16.3979518  60.5707026  36.6158271  17.5680423  60.0010490  37.3887253
   0.5413942  44.4990349  45.1320124   0.5742796  45.1666880  44.4468927
   0.8389004  43.6981249  44.7004318   0.4183822  44.3043709  34.4098234
   1.0708018  44.9994755  34.3237185   0.4631559  43.8297081  33.5798120
  48.4558964  66.5226698  41.2622261  47.8760624  66.4409113  40.5050373
  48.0390072  65.9925461  41.9414902  81.2557924  49.5643854  12.1636021
  82.1318811  49.7019863  12.5238335  80.7398795  50.2960062  12.5024211
  81.6912174  16.8306386  57.0326567  80.9024620  16.6848505  57.5549936
  81.7925262  17.7822459  57.0123291  61.8868876  58.4594393  50.3101826
  62.0059443  57.7559853  49.6720552  62.7660704  58.6256790  50.6502342
  61.6845512  48.9344978  41.7453051  60.7646179  49.1435099  41.5832138
  62.1568203  49.3623447  41.0310602  66.9303751  55.3158188  48.9247561
  67.6176119  54.7509718  49.2781496  67.0649958  55.2927494  47.9773521
  53.8218403  66.0726213  36.2174273  54.1300964  66.8116713  36.7418432
  53.7316084  66.4275742  35.3330636  62.0883512  65.7251835  47.8295040
  62.1453142  66.2868929  48.6024618  62.5712061  64.9349451  48.0715847
  64.5144081  59.6950912  50.8589554  65.0677109  59.6587181  50.0787210
  65.1292562  59.6475554  51.5910292   7.3856431  64.3299007  41.9679499
   7.4413681  63.5624552  41.3986015   7.6014608  65.0675631  41.3974190
  58.6606503  65.5107546  38.7107182  59.1590166  66.0289955  38.0788255
  59.2315245  64.7705555  38.9167094  10.2439094  67.2684908  32.3497796
  10.3211820  67.3274088  31.3975239   9.9428862  66.3742352  32.5107789
  60.9647083  66.9092894  42.2462034  61.6150665  66.3723803  41.7934370
  61.4619875  67.6546001  42.5830364  57.1288586  60.7657146  46.3586807
  57.0087194  61.7024183  46.2025309  56.8985844  60.6449986  47.2798967
  69.9813032  59.0592337  31.4228630  70.3210592  58.5196877  30.7089400
  70.4602003  58.7620163  32.1965218  68.1900263  67.4275589  19.8443711
  67.4434423  67.9824877  19.6187615  68.5940170  67.2158098  19.0028346
  67.6090574  48.4136534  42.9556990  67.5676489  47.5111103  43.2718277
  68.3274031  48.8079834  43.4503889  81.1169624  19.5404494  57.2168303
  80.8199120  20.0360847  56.4537191  80.3265762  19.1139460  57.5479174
  57.2895002  58.5581255  62.5039005  57.5054741  59.2635012  61.8939590
  58.1313419  58.2998419  62.8791666   1.7705946  60.4572439  44.2908812
   1.2284237  61.2235308  44.1035700   2.2840193  60.7089615  45.0585175
  56.5540409  68.9575291  46.9108725  56.0188866  69.6038818  46.4503622
  57.3652172  68.9137506  46.4046001  67.3317242  39.4076943  39.4547296
  66.5439701  38.8946581  39.2745304  68.0517244  38.8571095  39.1470146
  67.2589874  42.5751638  39.4958925  67.0897007  41.6386795  39.5987153
  66.8586969  42.8001165  38.6560130  63.3258772  49.5316172  58.9781046
  64.1658211  49.9443150  59.1791201  62.7011728  49.9638748  59.5604467
  70.8328867  41.0865021  45.2845669  71.2960768  41.2624741  44.4655895
  71.5223646  40.8422089  45.9019613  59.0998602  43.5363770  42.1196747
  59.3303347  44.3102741  41.6056776  59.0125084  43.8613176  43.0157852
  66.7655563  62.7423525  48.3360529  66.5981913  63.4261274  47.6874590
  66.3369417  61.9641733  47.9797459  67.7005625  68.6555672  59.8353577
  67.1888161  69.4482374  59.9966669  68.6005068  68.9670086  59.7387123
  41.7492485  64.7304916  15.8542979  42.4125814  65.1689625  15.3214121
  41.2798357  64.1685200  15.2377999  62.4259138  54.5524549  63.7388039
  62.5938892  54.9462080  64.5949411  61.8365955  53.8210249  63.9230442
  63.4225655  75.6100559  56.5009975  63.9651060  76.2200499  57.0007849
  62.8676558  75.1895571  57.1578741   9.1463649  58.9854479  25.5409908
   8.5953283  58.3702421  26.0248423   8.8811761  59.8475885  25.8613420
  76.3066292  60.8603477  34.7966146  75.4141951  61.1865807  34.9122071
  76.8551445  61.4944935  35.2583742  37.6585364   1.6811371  24.7452164
  36.7089844   1.5869959  24.6695971  37.7983856   1.9856076  25.6418610
  56.4965296  63.1874704  35.8422136  57.0399332  62.7208185  36.4771795
  56.6353464  62.7198029  35.0186563   0.6775684  48.3486557  15.6869972
   0.1133764  47.9866028  15.0037432   1.5593038  48.3063221  15.3168869
  66.6060019  58.9274073  64.6439552  66.8079376  59.8234749  64.3746758
  66.6882849  58.9395761  65.5975342  48.1367779  73.0326653  53.8734293
  48.7719679  72.3488283  53.6609745  48.3214331  73.7336445  53.2483196
  70.6809759  67.5080538  62.3501253  71.2898493  66.8326950  62.0511341
  70.9194851  68.2858419  61.8457603  80.4004192  58.1070375  33.6627340
  81.3152122  58.2381916  33.9121199  80.0613022  58.9910889  33.5224462
  60.6219769  60.1793528  54.3295813  60.9560776  61.0328102  54.0535116
  60.6837416  60.1954842  55.2846479  51.4859676  41.5463018   9.8805100
  51.2823486  41.0255575   9.1035932  51.5720558  42.4415827   9.5529580
  74.3731642  51.8138885  17.0363331  74.5273161  51.3407326  17.8540087
  75.1928043  52.2798347  16.8710577  74.1750956  31.7671704  56.2516642
  74.0584421  32.6602530  55.9275866  73.8917208  31.8049431  57.1651745
  74.0483999  40.5704021  45.9717798  74.2715406  41.4900351  45.8278704
  73.9659548  40.4898071  46.9220114  66.6732311  55.1672649  34.3067789
  67.2967768  55.8195543  33.9874887  66.0972118  55.0011635  33.5605621
   5.1469988  50.5997658  29.6912313   5.8863521  50.9657001  30.1766992
   4.5060652  51.3100100  29.6597433  69.3870449  68.3300257  26.5787053
  70.3160238  68.2805538  26.3533592  68.9577055  67.7448750  25.9546065
  75.9331799  62.4310160  42.1485662  76.1352682  62.6172113  41.2316561
  76.6491127  62.8354979  42.6385307  58.3953094  55.6658745  45.2219200
  58.8555288  54.9362373  44.8071194  58.6780739  55.6387854  46.1359978
  70.0662565  33.5107160  45.3702545  70.7969522  32.9210854  45.5564022
  70.4046297  34.3828607  45.5729818   8.2601506  12.9600930  32.3316550
   7.7400970  13.7610245  32.3971224   9.1682887  13.2608521  32.3642445
  49.1015625  65.4987383   8.0260402  49.2062330  65.6742811   7.0909142
  49.5624876  66.2180042   8.4578216  74.1613150  59.2173529  41.0364580
  73.3770037  58.7050152  40.8399916  74.7287703  59.0875340  40.2766085
  76.7313051  13.8549078  42.2652531  77.6856709  13.9285135  42.2669792
  76.5017653  13.6949348  43.1806517  66.7648697  50.0997877  29.4458699
  66.9959736  50.2410030  30.3639555  65.8099794  50.0333261  29.4467425
  57.0561886  72.4219227  50.0155401  57.7826262  71.8030977  50.0902319
  56.3162088  71.9730997  50.4244661  63.4986782  67.0628071  54.3078327
  63.5521507  67.9573774  54.6441555  62.8957224  66.6184855  54.9038649
  51.0899782  73.4786415  53.2425976  50.7493210  74.2142582  53.7515688
  51.4887524  73.8843012  52.4727583  71.3334131  66.1897612  54.0920830
  72.0801353  65.7119751  53.7310314  70.5699110  65.6774187  53.8259888
  65.6294250  75.8407879  39.2396593  65.8251524  75.1036453  39.8180556
  65.5995131  76.6003323  39.8214102  75.8343840  70.0713587  20.8259010
  75.0513887  69.5335531  20.7079697  76.4888287  69.6702480  20.2540231
  63.1460142  49.5765209  45.3228474  62.2543383  49.3153000  45.5528641
  63.0681896  50.4960871  45.0687408   4.7437280  65.7325840  28.8928366
   5.4483736  65.0980520  29.0235066   4.8937681  66.0794020  28.0133820
  56.5442562  39.6448588  62.0938969  57.0693779  40.4451180  62.1016884
  56.1579323  39.6203995  61.2184620  71.6935062  65.4470491  35.6580067
  71.4310932  65.1405811  36.5260196  71.1685991  64.9252987  35.0509810
  57.7488232  51.3960314  42.5159073  58.1207418  50.6505823  42.9873037
  57.9087353  51.1996317  41.5928221  70.6583357  73.1212378  30.0195336
  70.0832081  73.3018541  29.2760038  70.7066536  73.9521170  30.4923344
  81.6073799  68.8439655  38.0080509  81.9623756  68.2639313  38.6816740
  80.9348679  68.3209085  37.5717306   0.1449826  60.6487274  54.1690159
   0.5445047  59.7935057  54.3277931  -0.3572625  60.5324364  53.3625031
  66.1523485  44.8057652   0.1561108  65.4239321  44.4288588   0.6496567
  66.8379354  44.1388655   0.1941505  79.1756296  44.7995234  48.0588722
  78.6907721  44.0397453  48.3811760  80.0825882  44.4986725  48.0027199
  22.7929235  73.9878702  34.5271254  23.1339788  74.8353529  34.2413211
  23.0878592  73.3723402  33.8560319   5.3889543   4.7767398  40.6000376
   4.7321460   5.2552056  41.1059093   5.6865633   5.4034036  39.9405289
  65.2662563  66.3466549  52.0090723  66.0762119  66.7273378  51.6695356
  65.0375891  66.8982172  52.7572155  28.0429578  20.9778714  41.0309649
  28.1072807  21.7334509  40.4468489  28.9514542  20.7461643  41.2237835
   5.2121103   9.9307883  49.5179319   4.3779135   9.9658328  49.0498304
   5.4316401   8.9995486  49.5467615  27.0154023  21.4930701  12.2347367
  27.6576376  22.1149945  11.8927240  26.5735412  21.9678593  12.9387009
  68.7361050  62.7851057  27.0275426  68.8222361  62.0717335  27.6599288
  68.5320330  63.5538912  27.5600433  67.4012089  59.7856045  33.8016582
  67.9077291  60.4824972  33.3845210  67.5329876  59.9223995  34.7398233
  52.3206663  73.5597610  48.5364532  52.7426529  72.7756262  48.1853247
  52.5592136  74.2550516  47.9233503  59.2297983  74.1879272  36.1120224
  59.0175486  74.8502588  36.7696691  58.4198761  73.6892939  36.0042048
   2.8155467  73.7504005  46.7668915   2.0514306  74.0964603  47.2279739
   3.4257799  73.5075569  47.4632215   7.4257511  57.4397993  58.4722567
   7.4413210  56.4917564  58.6034250   6.4955044  57.6652002  58.4639502
  79.2638063  60.5867624  44.4803047  79.2129517  59.6476412  44.3022823
  78.8266277  60.6944370  45.3250027   3.8103321  56.5222549  16.4284337
   4.4654334  57.0086813  16.9288945   3.4512591  57.1644592  15.8161640
  57.6387787  63.6313868  26.9588137  57.5066376  63.1963062  27.8011155
  57.9217052  64.5165682  27.1882510  56.3203049  65.7841635  45.2892017
  56.9047594  66.4831781  44.9959087  55.5014420  65.9439850  44.8199987
  63.6120749  45.8828640  61.3011503  63.1796598  46.7265606  61.1691332
  63.3209467  45.5974293  62.1671772  49.3194532  21.8206191   2.4026717
  49.1960716  22.6618814   2.8423148  48.4746075  21.6394424   1.9907930
  64.9173498  60.7086706  16.7215872  64.3383932  59.9769163  16.9350684
  65.0582886  61.1541843  17.5569832  72.4054671  77.0229251  48.0977535
  72.0780302  77.6649623  48.7276793  71.6696346  76.4266475  47.9590607
  11.3138056   2.9195681  37.2523499  11.1299288   2.3442793  36.5097427
  11.5409982   2.3238550  37.9663110  63.3141232  47.0048761  50.0090647
  62.9472351  46.2546825  49.5412683  64.1403294  47.1858788  49.5608950
  64.9508095  55.1345730  37.2648931  64.7904730  54.3251085  36.7798257
  65.2306080  54.8425055  38.1324410  60.3818130  57.1308851  38.8258648
  61.1897039  56.6288185  38.9329910  59.7857189  56.5322876  38.3757687
  67.1476364  52.2192860  43.9219666  66.8104506  51.3337803  43.7862682
  67.9602337  52.2461748  43.4168005  49.0941525  26.0759020  42.7417278
  49.3158197  25.5529857  43.5122156  48.6985064  25.4511285  42.1339798
  78.8014698  57.8710938  39.7353125  78.0303526  58.3796787  39.9862146
  79.3713665  57.9053640  40.5036020  76.7644262  75.1105690  27.4012661
  77.1909666  75.6272697  26.7176604  77.0043659  74.2055464  27.2022891
  78.9128733   2.7834207  44.7759438  79.0051603   2.4965888  45.6844807
  78.2622385   3.4846175  44.8110628  68.0387259  45.3019667  64.2278624
  67.9321194  44.5215082  63.6840343  68.8828802  45.1780605  64.6617746
  40.4152870  11.4480400  14.4292784  40.3781986  10.6421936  13.9140427
  39.5429945  11.8313396  14.3375349  63.4278822  50.1388979  39.9698091
  63.5554314  50.6451130  39.1674924  63.9884472  49.3708181  39.8600578
  72.8234911  60.9129763  46.0046721  71.9960928  60.4785776  45.7974577
  73.3745575  60.7569742  45.2377176   9.0783966  42.7522612  19.2919457
   8.9641410  43.3401823  20.0386214   9.9102253  42.3097277  19.4606352
  70.2445459  71.4969301  23.8868022  69.9357796  72.4023581  23.9198732
  71.1509085  71.5416813  24.1913247  23.4481335  47.7117825   0.8033166
  24.1172743  47.0490789   0.9745163  22.6614499  47.3739910   1.2314032
  57.3278475  46.4816189  43.7275887  57.0088911  45.6983995  43.2791853
  57.4663639  46.2001753  44.6319294  53.0283308  39.6851993  54.0569496
  53.7159681  39.6576810  53.3916473  52.2483158  39.9742460  53.5833883
  57.5036621  64.2043638  50.1123524  57.9321957  65.0418425  50.2890348
  56.5806961  64.4281149  49.9927902  81.4474964  46.1879444  25.5723953
  81.1821556  46.4999914  26.4375281  81.4766979  46.9772339  25.0316596
  60.6830502  31.4372206   1.6500457  60.5219746  30.5034828   1.5143174
  60.1802540  31.8698072   0.9599047  66.0129166  41.2796783  32.4151063
  65.1196527  41.2229776  32.7543736  66.4007998  40.4285240  32.6183724
   1.8051496   9.9324811   4.0999296   1.9582915   9.1569436   4.6396708
   1.7586204   9.5960760   3.2050005   1.4504808  39.8659468  46.9989395
   1.8421809  40.7363558  46.9269276   1.7869201  39.5195270  47.8253984
  71.4979076  61.0021544  26.1950040  70.6325483  61.1867523  26.5601254
  72.1025515  61.4917374  26.7526293  39.3521738  12.4902272  38.4358883
  39.6909237  11.7377651  38.9209461  38.5358667  12.7151752  38.8822865
  66.9145918  70.4331636  47.6579666  67.8195238  70.5473232  47.9483128
  66.9591093  70.4982185  46.7040205  32.4889946   7.7042776  17.3837817
  32.2919035   6.9024414  17.8679776  32.1504831   8.4078121  17.9375708
  65.4331493  71.5024853  49.6891689  65.8334398  71.1481762  48.8951492
  65.5172777  70.7999229  50.3338099  67.9667139  75.0481844  32.3898101
  67.3503971  74.8536110  33.0958700  67.4512482  74.9529171  31.5889025
  59.7392273  60.2020741  45.3836393  58.8235140  60.4542637  45.5023813
  59.7000217  59.3835402  44.8889732  69.7425842  55.8656836  17.5495589
  69.5105696  55.3435230  18.3175099  70.4891491  56.3924885  17.8347743
  52.9737949  61.8868828  53.8322926  53.8605642  62.1618080  54.0652800
  52.9421806  60.9586668  54.0639257   9.4512933  17.3368096  41.1385870
   9.6728915  17.0252287  40.2610683   9.7788334  18.2358849  41.1633253
   3.6270371  72.5335264  57.4388027   3.2874432  73.1502151  58.0873394
   4.3689930  72.1131420  57.8735495  37.0105433  20.3155160   2.2529759
  37.6794410  20.4203534   1.5763548  37.0499206  19.3882167   2.4870595
  59.9686861  66.0590363  15.5168736  59.8011398  65.8695745  16.4400554
  60.5276489  65.3399515  15.2224076  67.0041370  48.5622120  46.1570120
  67.1133900  49.4640017  46.4587879  67.8209925  48.3619595  45.6999826
  75.5803776  64.9628019  30.7414246  75.4613400  65.6108665  31.4357376
  76.3418627  64.4528723  31.0177398  69.3508339  50.6706095  33.8153315
  69.6571779  51.4496231  33.3510828  69.6372080  50.8023167  34.7191429
  11.1103880   4.5049858  53.3977175  10.7248414   3.6309814  53.3368826
  11.7892265   4.5148128  52.7229500  67.5912905  76.5927267  27.3163652
  68.4227753  76.3076925  26.9373918  66.9289970  76.2929487  26.6936851
  72.7121544  53.7689924   9.0697306  73.5479116  53.3301497   8.9110976
  72.1199131  53.0665207   9.3380725  72.5647879  30.5056643  33.7763119
  72.2029686  29.6533990  33.5334897  72.1975422  30.6838965  34.6421051
   0.4336188  59.1587496  37.7860284   1.1665884  59.7099161  37.5117922
  -0.0451017  59.6942329  38.4187341  46.9977808  34.1085696  61.9496584
  47.3379374  34.7660947  62.5564432  47.6917982  33.4516478  61.8946314
  74.0635300  62.0030212  15.2277088  74.5048857  61.5397453  14.5158017
  73.6166430  62.7323627  14.7980702  80.3055763  47.9592609  42.9422331
  80.9799671  47.7162647  43.5765648  80.1912212  48.9018393  43.0634689
  68.2761240  65.4397583  51.1575890  69.2151403  65.5860853  51.0432720
  67.8667927  66.2369537  50.8211946  72.3785782  48.1659460  21.2848926
  72.9274178  47.7059460  20.6497478  72.9702568  48.7901163  21.7050767
  72.0387125  66.2212563  23.6138725  72.8678560  66.2848759  23.1398463
  71.5867090  65.4817247  23.2076430  55.2263069  65.2708387  48.0284691
  54.5608902  64.6457100  48.3159828  55.1552391  65.2742052  47.0739174
  72.7995300  52.6109171  31.0556746  72.7581644  53.0446815  30.2034044
  73.4670925  51.9334984  30.9474969  11.6045034  39.7839665  37.9620957
  11.5427446  39.8802757  38.9124346  12.1359324  38.9980459  37.8350377
  71.3468981  50.8581734  40.0638247  71.1981487  49.9310207  40.2495480
  71.2453699  50.9316444  39.1148639  70.0383854  45.7978487  53.8297653
  70.4796076  46.5310383  54.2587090  70.3549194  45.0229979  54.2941380
   9.6646792  15.8726728  34.6991611   9.7576928  16.7587078  35.0491953
  10.4878736  15.7093668  34.2388225  61.3946962  46.1551952  43.8420248
  60.9489632  46.1355543  42.9951668  61.2088680  47.0271921  44.1903305
   0.4608572  53.2653713  51.7955637   0.9835671  53.5495710  52.5453901
   0.0109834  54.0579939  51.5030003  79.0125418  58.6643505  55.6660414
  78.1307268  58.8813925  55.9685755  79.0015268  58.8671494  54.7306395
  55.7954121  71.4200687  33.1891942  55.6231499  71.8446779  34.0295887
  56.1752367  72.1102762  32.6455212  79.1044903  37.6055479  46.7682838
  79.4225836  37.3678303  45.8973455  78.1509781  37.5667429  46.6938591
  41.0546875  20.4785228   4.0767491  40.4169369  19.7683465   4.1485941
  41.9043207  20.0377154   4.0703914  67.8006220  69.0138435  33.4901285
  67.8874493  68.9487362  34.4411564  68.1553221  69.8766613  33.2757473
  58.1395245  66.8721247  41.2865210  59.0822220  66.9663715  41.4231682
  58.0643559  66.3272572  40.5031300  24.3551230  20.3535748   0.7253482
  23.9772081  21.2264204   0.6178749  23.7045932  19.7625721   0.3461945
  71.7128897  46.8089390  43.2735872  70.8483171  46.5348864  43.5795975
  72.2308540  46.0040140  43.2669497  19.7341740  40.2639771  50.6492519
  19.0269732  39.6201849  50.6089067  19.4051230  41.0127163  50.1519108
  71.3745642  54.3278980  43.6137152  72.2034836  54.2218161  43.1469536
  71.2903261  55.2729177  43.7405157  72.2776079  48.4897804  35.2749228
  71.8739653  48.4161472  34.4101191  72.1615791  47.6246834  35.6678343
  67.3476505  67.8383160  51.0123968  67.0487022  68.1768703  51.8563414
  68.1964779  68.2581854  50.8729839  60.3079844  61.2523079   3.9741874
  59.9294662  60.4639721   3.5849741  61.1012506  61.4143276   3.4635925
  78.4153748  55.3002596  25.1649499  78.4019089  55.5779171  26.0808945
  79.2259979  54.7985935  25.0786400  75.5002308  51.3649654  35.3771949
  75.6259346  52.2825289  35.6190753  74.9663401  51.0019541  36.0838914
  68.8232756  56.2155724  33.0304527  69.2615271  55.6657124  32.3809743
  69.3270111  57.0294952  33.0342698  53.4883308  61.5019798  29.9557781
  53.1683922  62.2804976  30.4116058  54.4012547  61.4210081  30.2318931
  69.1708517  39.6652508  17.2428000  69.7693920  39.6066999  16.4981127
  68.2979536  39.6489429  16.8503582  62.4027300  41.6260147  49.5813084
  61.9327450  42.4470377  49.4354963  63.1108236  41.8587780  50.1818562
  71.1537743  67.0504475  32.0292425  71.3242817  67.2864246  31.1173892
  70.2377415  66.7728758  32.0375443  55.4553843  69.6963358  24.4598532
  54.9581242  70.4284239  24.0951467  54.8793936  68.9391994  24.3539786
   6.4356095  35.2868009  38.3076668   7.1890277  34.7159839  38.1568074
   6.8170017  36.1511111  38.4617519  74.9036360  55.1008034  53.2187653
  74.7906256  54.7263765  54.0924168  75.8506441  55.1022434  53.0794668
  42.9678297   5.6620294  52.3064852  42.5788832   5.5633110  51.4374638
  42.6800108   4.8859924  52.7872753  14.1604137  25.5785871  63.2717514
  14.2975104  24.8342180  62.6857901  13.4954774  26.1093688  62.8331614
  61.7055321  60.9035158  42.7267265  60.7729149  61.0970259  42.6317739
  61.8996429  60.3016758  42.0081568  72.5678682   4.6616256  40.1240635
  73.4086418   5.0405216  39.8676181  72.3194456   5.1422447  40.9137011
  61.5673685  55.6731987  59.1375113  61.1851025  55.9568119  58.3070469
  62.5071764  55.8205700  59.0313101  65.7337761  62.5565338  30.1625466
  66.1140680  63.4347773  30.1799059  64.9417353  62.6279259  30.6952810
  17.7873492   2.5328144  38.8787746  18.2016814   2.0219770  38.1833577
  18.1008554   3.4263328  38.7388778   8.5028493   1.0124645  45.3024006
   8.7847525   1.1727365  44.4018030   9.2897367   1.1545644  45.8285618
  66.2501001  55.0390387  42.7929735  66.3866425  55.6447697  43.5214472
  65.9270144  54.2377758  43.2050753  44.6626329  73.7091494  60.3806543
  44.6203613  73.1503105  61.1566353  44.9991703  73.1366777  59.6912670
  75.7308006  39.9171257  26.3276029  76.3131952  39.2988968  26.7690110
  74.8644543  39.5144939  26.3873553  50.5785608  74.8422718  41.8498564
  49.8856211  75.5017233  41.8844128  50.6171894  74.4886398  42.7384996
  10.9527862   7.5174606  32.0688558  10.1855576   7.5481343  32.6403904
  10.8208013   6.7357075  31.5325022   9.6705765   6.9420046  54.1462612
   9.1766053   7.4137670  53.4756947  10.0384188   6.1874318  53.6863232
  20.7748413   8.2248509  46.1797142  21.1171150   8.1826544  47.0726299
  21.5530634   8.3074969  45.6285572  64.1606236  36.6680336   2.5811574
  64.2959833  37.1571493   3.3927441  64.7818422  37.0530438   1.9630277
  22.2630405  11.6615343  59.7925138  22.5848484  11.0277295  59.1514492
  21.6853642  11.1536789  60.3622532  57.5322819  21.7406464   8.1002700
  57.7874660  22.6511765   7.9517764  57.4688578  21.6618657   9.0521115
  79.4273996  56.4325809  45.9758806  78.5249424  56.3410807  45.6702185
  79.9311113  55.8423471  45.4154110  28.7318659   7.3395675  26.6799641
  29.6343160   7.4414504  26.9823480  28.3331394   6.7424345  27.3129606
  21.4698362   5.4475695  47.0111418  20.5656552   5.7129931  47.1791792
  21.6138887   4.7039902  47.5964403  71.8728828  48.0713367  58.1109524
  71.1653471  48.6621284  57.8529072  72.1546268  48.3945036  58.9667654
  72.2020006  13.8466239  36.0149693  72.1397877  14.6474171  36.5356350
  72.9494476  13.3774018  36.3856244  58.8545895  77.1775293  49.6014690
  58.4195805  76.3249254  49.5937395  59.7615719  76.9858265  49.3630028
  64.3621302  70.8804417  32.3039842  64.3261337  69.9808168  32.6289678
  64.0359592  71.4109325  33.0309105  74.1384554  67.9081249  60.0771284
  74.9847651  68.1882954  59.7285652  73.5438824  67.9543924  59.3284130
  68.2837963  59.2103100  16.5562558  67.9403305  60.1037598  16.5531909
  69.1933584  59.3023872  16.2726223   3.4293827   6.2740201  45.0035000
   4.1459942   5.8401710  44.5403862   3.7634611   6.4073998  45.8905363
  52.5859547  46.7358685  65.6301546  52.4075174  45.8690643  65.2654123
  53.0232191  47.2084045  64.9218178   6.2547064  66.8341064  50.5975008
   5.4898226  66.6293955  50.0596571   6.7658710  66.0248518  50.6048298
  20.9713769   3.8080904  53.4786987  20.2500677   3.2528272  53.1826830
  20.9123635   4.5901704  52.9299736  30.5919695   6.6587603  39.3944573
  30.5348420   6.1276633  40.1887512  30.8908033   6.0491419  38.7197018
  81.5262508  50.2264118  56.1738920  82.1697140  49.7531080  55.6464767
  80.6995964  49.7739649  56.0060596  43.2799625   7.0390898  43.5455561
  44.0555477   6.5395087  43.2903671  42.6354742   6.8451023  42.8649426
  41.8237019  33.7376904   3.2628947  42.3161983  32.9190874   3.2031491
  42.3703671  34.3797064   2.8098974  24.2978477  69.2034674  38.4596944
  24.9781084  69.4390488  37.8288412  23.8175368  70.0178146  38.6092830
  65.9802580  67.0534658  29.3874764  65.6252146  66.9297361  30.2677417
  66.4155769  67.9052401  29.4223380  73.4340620  72.7045870  44.3653345
  73.7578011  71.8423080  44.1047478  73.5877800  73.2593012  43.6005545
   3.3691129  63.3769608  26.9082379   3.3013889  64.0340853  27.6009345
   2.5524670  62.8811979  26.9677329  52.6374626   7.0127988  18.6715639
  52.9562950   6.1493969  18.4086668  53.2837582   7.3240089  19.3053508
  52.8581905  61.5122461  17.4285507  53.5161781  60.8718824  17.1579587
  53.3569622  62.3117542  17.5965953  10.5293250  19.9747396  41.3722610
  11.4356220  20.2563286  41.2475014  10.5045414  19.6370053  42.2675562
   4.9754474  21.5075350  38.2210159   4.3589860  22.2394848  38.1995869
   5.6923878  21.8143868  38.7760568  11.1351883  74.0133524  32.3489690
  11.7332137  73.5674572  32.9487801  11.6802216  74.6648026  31.9076204
  80.1117516  73.5476637  40.8888674  80.4259396  73.1532764  40.0752449
  80.6986809  73.2054901  41.5631533  23.4162259  11.7040122  43.2189322
  23.1018496  12.0211804  44.0655708  23.6665487  10.7945895  43.3817816
  17.8690326  67.7122068  53.9498806  18.0174613  67.1596813  54.7172880
  18.6859107  68.1998301  53.8442230   2.9694200  70.2234745  21.0191536
   2.9337958  70.4135656  20.0816965   3.7381855  70.7007694  21.3312769
  56.6978216  63.4255695  46.2602377  56.5266800  63.6459827  47.1758604
  56.7164421  64.2700815  45.8100367  62.9257679  50.9698582  50.9593010
  61.9808626  50.8387375  50.8806467  63.0439091  51.3429594  51.8328428
  16.6641080   2.6867589  33.0141830  16.5456486   2.9107741  32.0911360
  17.5888264   2.4503289  33.0865049  81.7996120  54.1700888  47.1847105
  82.1042061  53.2626486  47.1810675  80.8475113  54.1034412  47.1120024
  33.6597180  10.5173290  24.9696016  34.2011070  10.8288217  25.6949306
  32.9118824  11.1146271  24.9551988  61.1939192  18.3380377  17.1860099
  61.2261772  17.4021173  16.9879091  60.3185606  18.6109781  16.9112766
  28.2019925   2.2115996  28.9508677  27.6158404   1.8106970  29.5926905
  28.0516076   1.7152975  28.1463170  66.8649721  63.0692959  44.0363979
  66.3741541  62.2536612  43.9360332  66.4123535  63.6926556  43.4682465
  42.2205782  28.7530684   0.6400091  43.0803013  28.8155532   1.0561876
  42.4058867  28.4465003  -0.2476333  69.7506618  50.4272604  21.5416098
  70.6130505  50.2183199  21.1826348  69.9226141  51.0969734  22.2035408
  13.3246076   9.7619939   8.1531394  12.3881900   9.7647750   7.9547805
  13.5903645   8.8492227   8.0415404  77.3176670  36.8242335  50.0348616
  76.9874668  36.9999123  49.1537619  77.0523930  35.9222674  50.2146339
  75.7110929  72.5526142  58.3858967  75.3695297  72.1304989  57.5976181
  76.5664101  72.8931332  58.1237793  61.7754936  74.7443485  35.3702879
  62.2952127  75.0265789  36.1229324  60.8795357  74.6937227  35.7033420
   6.4969260  72.8462648  35.4464126   6.0906643  73.7096786  35.3709030
   6.7659128  72.6292419  34.5537901  79.6631241  19.2979074  46.4845228
  79.9002838  20.1780105  46.7767668  79.2210102  19.4347692  45.6466484
  30.3672338  28.6982322  -0.0037581  30.0775051  29.4775367   0.4705586
  30.8100748  28.1662726   0.6574082   7.1904397  75.6728029  59.6217155
   7.7697670  74.9608612  59.3501520   7.7472222  76.2475300  60.1469851
  34.1548824  46.6191578   3.0051693  33.6325765  46.8172836   2.2278818
  34.1357756  45.6643200   3.0695790   8.6370009  15.0733066  37.0934558
   8.7457347  15.9216380  37.5232720   9.0998483  15.1656544  36.2607050
  78.9928198  67.1119022  10.0856733  79.1519022  66.2011576   9.8377532
  78.2563353  67.0689631  10.6955731  70.7755136  67.3276854  41.9592571
  70.1615191  67.0289516  41.2884331  70.2410984  67.8497267  42.5576782
  11.4869034  13.6647534  28.9249134  11.9711590  14.4844449  28.8257480
  10.6948924  13.9107835  29.4028449  68.6143589  69.1483545  39.2519951
  68.6787939  68.2411766  39.5504951  67.7639580  69.4467783  39.5744681
  12.8302085  20.2309275  55.1985931  12.0918489  20.8342290  55.1144218
  13.1956530  20.1749921  54.3156672  71.8258047  65.5761576  26.5927267
  71.8002605  65.5765390  25.6358671  72.5778151  65.0260544  26.8120313
  27.7778316   5.0538564  37.0479107  26.8372226   4.9041453  37.1431613
  28.1114888   5.0596946  37.9450583  62.6632738  75.3952169  46.8169212
  62.8173590  75.7972622  45.9620237  62.9769325  76.0441303  47.4468040
  10.1183224   0.2077380  57.7579165  10.8110404   0.3405786  58.4050083
   9.8807615   1.0912718  57.4765539  65.5396652  60.2458858  48.3899117
  65.0249958  59.4713497  48.1631041  64.9548197  60.9825230  48.2122803
  50.7056141  47.5988674  58.7382555  50.6893015  46.6437531  58.7992382
  49.9786282  47.8865767  59.2904758  57.8364658  66.7219734  51.1782265
  57.4009705  66.7743826  52.0290089  57.4585485  67.4404335  50.6710529
  80.4505920  65.1970148  29.9600601  80.0130177  64.4211864  29.6095705
  81.3073826  65.2020645  29.5333099  11.1191761  48.4415293  43.3045673
  11.6404510  49.0565443  42.7885628  10.2221155  48.5707283  42.9966354
  62.3967361  60.5553484  45.4406500  62.3846340  60.9328985  44.5611334
  61.4735556  60.4291296  45.6598330  19.2799902   3.8440710  41.6611719
  19.2746007   2.8971618  41.8010473  18.4616661   4.0223831  41.1977243
  42.5072002  64.6024561  18.3847511  42.1426773  64.6111393  17.4997211
  42.9941034  63.7798882  18.4351754  21.2884450   4.5989656  57.9563141
  20.3491735   4.7760174  57.9048157  21.6759253   5.1656687  57.2892761
  72.7029991  44.4339418  43.1990623  73.3670902  43.8274050  42.8714514
  71.9264269  44.2464638  42.6717901  72.5627613  69.2915487  54.7074509
  71.6555500  69.1639662  54.9847841  73.0353832  68.5500860  55.0857258
  76.4542913  46.1536503  42.8192616  76.8202209  46.2107515  41.9366121
  75.6243944  46.6275835  42.7656078  19.5010900  26.5539169   2.7481925
  19.3808019  25.9929872   3.5144302  19.9610364  26.0010815   2.1164863
  13.6777544  57.2734213  23.6774850  13.7158978  56.8750906  24.5470309
  14.4072747  57.8930092  23.6656570   1.6904405  70.8287191  37.5433040
   2.1133864  70.7752800  36.6862774   0.8936598  70.3065157  37.4501562
  47.4722290   2.6143721  26.3269782  47.4589729   2.3519757  25.4065394
  47.7874041   3.5181004  26.3138843  17.2980070  11.3766897  48.2813263
  16.8973804  10.5678093  47.9628277  18.2293546  11.2763524  48.0844641
  55.6110191  63.8645887  31.0385704  55.5960178  64.7860193  30.7797837
  54.6989965  63.6584663  31.2434149  36.1937609  45.5651746   0.2000656
  36.7590883  44.9257729  -0.2332983  35.5156383  45.0379149   0.6224145
  72.7079773  51.3835430  21.5115929  73.5136890  51.0800362  21.0933304
  72.8559732  52.3162031  21.6680312  79.7659254  50.1761770  62.1114111
  80.0144768  49.3416834  62.5090027  80.2463341  50.1997042  61.2838364
  10.0199652  63.6212873  58.6997175  10.5710733  63.6932802  59.4790316
  10.4246187  62.9239273  58.1837988  18.3200753  62.2610569  24.9437356
  18.6878419  63.1221342  24.7449398  19.0814996  61.7143726  25.1376486
  71.5592957  70.6452990  36.7042136  72.3921776  70.9202671  37.0875287
  71.7993593  69.9723530  36.0672355  43.0560446   7.5881839  31.5990758
  42.8412533   6.7255819  31.2440920  43.0550861   7.4636352  32.5481391
   3.1808284   3.0973119  60.4660988   3.6734429   3.9156541  60.5283785
   3.0133212   2.9892418  59.5298862  62.5040674  76.9334173  27.4822450
  63.4331608  77.0159531  27.6971960  62.4896908  76.4182806  26.6756105
  64.5482635  72.8204775  41.7330837  65.3902340  73.1397820  42.0576763
  63.9343786  72.9963636  42.4461365  35.2234626  28.3605075  10.7339120
  35.2989745  27.4940252  11.1335838  34.6795011  28.2202077   9.9588943
  80.3882217  48.3966732  29.4204760  81.2962723  48.1751776  29.2140508
  80.4023647  48.6230803  30.3504062  46.7692041   1.2252923  42.7899551
  47.2492790   0.7809554  43.4887552  46.0924816   0.6004485  42.5294781
  17.4362946  21.1413646  26.8492103  17.9694295  21.8542933  27.2009706
  16.7301273  21.5813661  26.3759685   2.4062531  72.9314852  60.4202747
   1.8772507  73.6788321  60.1412439   3.3103380  73.2106590  60.2756262
  42.7629948  10.7758331  15.8290744  43.3742332  11.0128498  15.1316166
  41.8992376  10.8346272  15.4207873  24.6074462  73.8870239  15.6429005
  23.6945033  73.6542559  15.8119822  24.7075915  74.7580910  16.0268843
   0.5201122  65.8801079  51.5965128   0.6383201  66.8258715  51.6847944
  -0.4134110  65.7396173  51.7546749  20.2260685  37.6942921  65.2963924
  19.9794698  37.4655771  64.4002247  19.5403588  37.3062372  65.8399391
  49.5831347   3.9897373   2.4780390  49.6361542   4.5207006   1.6833700
  50.4080677   3.5046214   2.4974428  38.9506984   6.4513737  28.6852860
  39.6809220   5.9421790  28.3335352  39.3563533   7.0503408  29.3121147
  55.1855803   2.9739138  22.6197863  54.7869396   2.5306073  23.3686519
  55.8972406   2.3938379  22.3490882  43.0812597  14.5516360   0.6155684
  42.3864031  13.9077663   0.4783210  43.8731098  14.0274954   0.7359159
  35.6359577  73.0495405  11.3155675  35.5900979  72.7171087  12.2120166
  36.4959478  72.7712393  11.0006154  18.4977150  69.6125746  30.6034613
  19.0659225  70.3600550  30.7895970  17.7375138  69.9932528  30.1636791
  74.9787569   9.7779077  39.9321342  74.2647886   9.9190223  39.3103838
  75.4059935   8.9769739  39.6284819  53.7894154   0.5362134  20.1447701
  52.9812574   0.0233193  20.1520586  54.1651154   0.4035868  21.0151076
  10.9487820  72.8070259  36.5898156  10.2912927  72.6144075  37.2582746
  11.7787528  72.8185606  37.0665193  59.8523855  45.4907942  59.2121696
  60.3257799  46.3215256  59.2570448  59.0699816  45.6884861  58.6973953
   3.3577698  46.5464354  31.7624807   3.5150212  45.6564522  31.4471412
   3.9181462  46.6296768  32.5340247  21.3850617   3.2133311  48.5260105
  21.7233968   2.4674638  49.0214348  20.4336929   3.1386307  48.6005020
  22.2673869   1.6512637  40.5317068  22.9202271   1.0922825  40.9530973
  22.2729659   1.3766710  39.6147537  44.9427366  58.9792681  28.0370855
  44.1974831  59.5627975  27.8945231  44.5840836  58.2529116  28.5469961
  16.0976899  56.7454338  25.3854084  16.9564056  56.3243723  25.3460979
  16.1520445  57.4600124  24.7508550  45.3883362   6.1178982  40.8535194
  46.1796713   6.2129903  40.3234434  44.8634720   6.8896174  40.6409168
  42.4796057  10.4200327   9.8128116  42.4251699  10.3369248   8.8607818
  42.3502159  11.3536799   9.9795198   7.7032024   8.4522015  18.4929049
   6.8718666   8.9083230  18.6235404   7.4568868   7.5350976  18.3725667
  41.2209034  68.4987402  18.2054126  40.7873011  69.2416716  17.7855706
  40.8082199  67.7285004  17.8147078   5.1727164  71.7972612  22.2159934
   5.9675419  71.7473412  22.7470231   4.5666602  72.3204660  22.7405739
  51.9739485   2.2504918  21.7543387  52.6558113   2.0129304  21.1259651
  52.4401426   2.3621976  22.5828409  54.9057484   4.0189138  18.6818469
  55.5371094   4.7321850  18.5877252  54.8729229   3.6122844  17.8159320
  11.9296789  60.2977514  20.9590626  12.7502191  60.1245928  21.4205384
  11.6591680  59.4434118  20.6226778   9.0395164  69.1815805  27.3290515
   9.2319089  68.7732267  26.4849758   9.8854476  69.5083761  27.6353765
  29.3037653  54.5810080  15.1875567  29.2718363  54.0668535  14.3807971
  30.1961446  54.9260473  15.2165163  48.7630606   1.1906286  33.6732721
  48.4439611   1.8686783  34.2688036  48.2911253   0.4001873  33.9353967
  39.4034767  69.3013668  28.2320881  39.9684572  69.9832773  27.8687263
  38.5237718  69.6773672  28.2008243  56.9180536  13.6190617  34.4093037
  57.7253056  13.5880828  33.8958716  56.6878033  14.5477211  34.4377828
  35.7201958  22.4675655  31.6077590  36.4713097  22.1841788  31.0864615
  36.0341525  23.2380509  32.0810628  45.5087805   1.3648480  31.9059181
  44.9776173   1.7580596  32.5983620  46.1265898   2.0527056  31.6581368
  36.9723153  10.6016839  26.5620542  36.8251824  10.9586024  27.4379516
  36.6045213  11.2585366  25.9708667  51.1083364   0.5056059   7.4861985
  50.4970980   0.9394622   6.8908936  50.5483341   0.0683184   8.1276107
  26.5387702  34.2387342  29.4420552  27.2401643  34.4220161  30.0671029
  26.6682816  34.8788285  28.7422419  15.9015071  65.6177187  18.1721485
  15.6877375  66.0844421  17.3642492  16.5161836  66.1940861  18.6262476
  69.8496199   4.3280464  26.3339663  70.7066250   4.0087104  26.0514784
  69.3949413   4.5455912  25.5202270  10.0204396  57.7663279  11.4674461
   9.2431527  57.7683401  12.0260632   9.6743476  57.7921057  10.5753767
  39.9278045  11.1670530  19.2352676  40.2977514  11.3009286  20.1078773
  40.4008341  10.4108191  18.8880134  54.8854780  17.3304248  19.2439246
  55.5232048  17.8939450  19.6820867  55.2825785  17.1339381  18.3954334
  43.1433249  23.9988708  64.0426397  43.3459282  23.8616323  63.1172466
  42.9031229  24.9236250  64.1006517  21.3501692  21.9612384  37.5657582
  20.4677939  21.8577337  37.9220390  21.4536858  22.9061389  37.4531555
  41.7695093  34.8064709  14.7516870  41.5157032  34.0742350  15.3135121
  41.0038090  34.9603558  14.1982830  35.9921956  14.5600247  37.2936010
  36.7604184  14.4872022  36.7272425  36.2751198  15.1296866  38.0089140
  47.3759413  70.6878662  23.8073659  47.9970455  70.1755810  23.2896543
  46.9829273  70.0533009  24.4066143  76.1777306  69.5237255  26.4907360
  75.2558708  69.4310951  26.7312145  76.6095734  69.7997618  27.2991562
  53.9330339  17.5880730  33.1290030  53.4650183  18.2354617  33.6563420
  53.2848454  16.9048917  32.9576969  33.5728192  58.3011103  13.5251355
  32.7854037  57.8673744  13.8538909  33.2640839  58.8357115  12.7936184
  60.7463551   2.4810185  18.7931848  61.0302544   3.0343881  18.0655742
  59.8186255   2.3183826  18.6226034  56.7532396  24.3212318  63.0786753
  57.6080275  23.9047146  63.1885719  56.3926649  23.9226937  62.2865963
  59.0487862   6.2738436  53.8494778  59.5841455   6.0078132  53.1019115
  59.4645119   7.0747155  54.1688681  17.4818659  74.8183060  30.3197432
  17.9373527  75.2558041  31.0390210  17.0679450  75.5293941  29.8306084
  44.2318630  13.8358128  11.8227005  44.6197414  14.2990720  12.5651109
  43.7489271  14.5103979  11.3452709  34.4543910   5.3854400  37.4967146
  34.6996379   5.1774722  38.3982897  33.5472131   5.0895983  37.4209547
  69.5688629  10.5713177  45.1944208  70.4254246  10.2871776  44.8753691
  69.0708351   9.7604769  45.2980423  32.3325777  16.3921928  34.6151304
  31.4021063  16.2293041  34.4604683  32.7607155  16.1268497  33.8011765
  12.9001725  70.5572033  32.2672606  12.8390241  71.1410809  33.0232882
  13.1497884  71.1298227  31.5419769  27.1820927  70.0761700   2.1764417
  28.1375217  70.0783920   2.1183017  26.8925166  70.5174589   1.3779181
  28.8526797  16.7265582  43.2323456  28.3002901  17.3052299  42.7067614
  28.2498598  16.0674155  43.5763931  32.9231596   3.1940693  33.3218622
  33.5980749   3.4613058  33.9458060  32.0990849   3.4496725  33.7363482
  80.0957680   0.6399940  24.3253136  79.7136259   0.2224022  23.5534239
  79.6840382   1.5034586  24.3590307  52.1781921  29.0386844  12.1560323
  52.3395395  28.3277178  11.5357709  52.3583317  28.6537695  13.0137169
  81.1445141  69.0247917  12.5003099  80.4199123  69.2897081  13.0668867
  81.2015057  68.0758715  12.6122546  37.6203513   8.6266750  15.2550960
  38.4621525   8.4239244  15.6631315  37.1620131   9.1605169  15.9040725
  60.8504152  22.4949813  25.6030869  59.9580002  22.8378940  25.5558658
  61.2012529  22.8518176  26.4190626  65.5525351  10.3111374  45.3632498
  65.6450176   9.3824673  45.1505327  66.2305450  10.4754019  46.0186529
  43.9864016  14.6078503  16.1772501  44.2385292  13.9727128  16.8475199
  43.1899214  14.2443240  15.7903373  35.2172422  10.2911711  37.7617049
  35.7618642   9.8758733  38.4303951  35.1307988   9.6276915  37.0771956
  14.8645365  57.3951292  33.1593537  14.9177742  57.7214193  32.2610593
  15.7511115  57.4991465  33.5048938  81.7121315   2.8796971  56.6634560
  82.0126343   2.1404113  56.1348867  81.9546413   3.6527818  56.1537886
  76.1808491  10.4392862  21.2289572  75.7439470   9.6585053  20.8887672
  76.5353918  10.1658976  22.0749998  71.2954712   4.4248083  29.7418141
  70.4841232   4.2821053  29.2543888  71.0281897   4.4119111  30.6608486
  33.2410693   6.4240801  41.4597607  33.8218284   6.0442984  40.8004284
  32.3849034   6.0374975  41.2760162  30.8401585  68.3305550  15.2490020
  30.3841996  67.7848005  15.8896935  30.5787516  67.9729033  14.4004822
  56.9216299   6.8911779   5.8317369  56.9995451   7.1197653   4.9055031
  56.2564278   7.4899954   6.1710835  28.4095931  68.9550495  30.1261497
  28.0307078  68.1752062  30.5317664  29.1079021  69.2209244  30.7244015
  54.3545869   0.0560028  23.0297399  55.0205353  -0.1372545  23.6895847
  53.5767034   0.2902204  23.5359693  55.4350042  24.4748902  12.9145694
  54.9957466  25.3146625  13.0489671  56.0836792  24.4287801  13.6169398
  47.2674084   4.8286143  38.0718899  47.3393059   5.3188467  38.8908744
  47.8393412   4.0710428  38.1952190  43.3551693  30.4671860  31.8982291
  43.4859705  30.3811455  30.9539199  42.5065708  30.0553346  32.0609927
  27.4352121  26.9217467  10.5557942  28.2546163  26.4273620  10.5360329
  27.6437879  27.7112126  11.0552645  80.6856346  30.4190850  64.2862034
  79.7867966  30.2184343  64.0253162  80.9868622  29.6290016  64.7348261
  55.1285601   5.8387059  48.4766531  54.2115784   6.0610998  48.3156490
  55.1042652   4.9346265  48.7901545  38.6135054  12.3008275  43.2137060
  38.1300521  12.1059179  42.4108887  39.1493773  11.5223622  43.3655739
  41.6931677  71.2813711  28.9304805  40.8566999  71.5764523  28.5706472
  42.3432827  71.8581629  28.5293627  25.6216645  61.6362762  12.5170124
  24.8279166  62.0338774  12.1590853  25.6691551  61.9632149  13.4153938
  19.7310686  61.2505388  21.9583201  20.2750278  61.4599705  22.7175832
  20.0993872  60.4355049  21.6173077  74.6154118  27.0412111  25.3773069
  74.5118761  26.4189434  24.6573806  75.5557966  27.0466065  25.5558515
   5.1374120  70.2543068   1.4775853   4.8718634  71.0277939   0.9801584
   4.3139398  69.8286057   1.7161307  75.8604240  21.4904213   2.8704798
  75.3720379  20.9491253   2.2502303  75.3979969  21.3793278   3.7011737
   2.5770649  75.6523943  23.3280540   3.3487320  75.4413843  23.8536358
   2.1351163  74.8125076  23.2035303  35.5798173   6.8655866  24.0663624
  35.5102992   6.9703323  23.1174541  35.9668589   5.9980452  24.1838479
  29.9461317  71.4121723  17.9588544  29.6478438  70.8576059  17.2379434
  30.1895571  72.2381210  17.5407815   8.4465176  69.0091181   6.3786227
   8.2501411  69.2040157   5.4622799   7.8810060  69.6001625   6.8757135
  12.8526151  73.2177162  24.0305281  13.4597528  73.9435196  24.1748309
  13.4165323  72.4524784  23.9180923  26.5030956  75.0349236  50.1406288
  26.0430050  75.1083899  49.3044758  26.0208654  75.6138229  50.7310247
  56.5051508   5.7338238  32.2249055  56.6619110   6.6026366  32.5948000
  55.7089996   5.4284436  32.6597881  56.4743376   3.3886197  29.3127298
  57.3068523   3.4219971  29.7839427  56.3523149   4.2773557  28.9788294
  43.3999777  10.6415677  26.5657854  43.8632822  11.1781693  25.9226346
  44.0703678  10.4027569  27.2059250   2.3480368  66.3144636  20.6000161
   2.1410292  66.7111635  19.7538459   2.9609257  65.6096649  20.3905916
  45.1766253  16.0653830  21.7762685  44.8902655  16.8848729  21.3729501
  44.9623251  15.3926456  21.1299467  28.1576300  73.5610962  24.9565029
  28.9985132  73.6491060  24.5077229  28.3449388  73.7980747  25.8647919
  39.3672800  13.2648134  16.9199944  40.1185131  13.4910786  16.3716483
  39.7488666  12.8229892  17.6785541  37.6263189  17.9973233  15.6700158
  36.7683697  17.6456821  15.4323101  37.9734826  17.3721480  16.3063061
  52.5290346  28.0194473  14.4907022  53.0915976  28.5693479  15.0360143
  51.9270325  27.6052642  15.1089919  24.8454666  73.7355661  23.4462643
  24.0480828  73.6392307  22.9255629  24.5956326  74.3215227  24.1607356
  74.3501902  65.0681162  28.0799675  74.8663664  65.0958681  28.8855886
  74.7683001  65.7094431  27.5054073  20.9282708  12.4642467  42.5209379
  20.5852962  11.7393148  41.9983721  21.8664432  12.2871721  42.5895548
  44.1709089  67.6315165  42.6151609  43.3653641  67.2303104  42.2890234
  44.1544914  68.5216761  42.2636318  25.0515342  15.8430815  10.5945766
  24.2640209  15.6162143  10.1000190  24.9720955  15.3496981  11.4109671
  14.1547585  55.9518480  21.3042593  13.8183343  55.1999950  21.7918754
  13.9225268  56.7091894  21.8416047   4.6104565  30.1612401  65.0893736
   3.6810637  30.3430152  65.2287245   5.0617808  30.7280326  65.7148981
  40.0028563  68.3918381  30.8192039  39.6891117  67.4888420  30.7702589
  40.0174570  68.6899471  29.9097276  46.6983604   6.5846413  17.5678837
  47.2652245   6.3474393  18.3018005  47.2751236   6.5665466  16.8041754
  62.8279829   4.5750824  37.7521634  63.7414837   4.3093839  37.6465273
  62.4100828   3.8296977  38.1834316  41.7699671  69.9332619  12.9738867
  41.1422920  69.3028593  13.3272231  42.4195671  69.3959999  12.5204563
  41.9640970   6.0210055  28.0407190  42.6546574   6.3155484  27.4469161
  41.7948437   5.1154524  27.7807975  31.6759825  66.3445997  38.3387995
  32.4927354  66.1484528  38.7977886  31.2605572  65.4913378  38.2139087
  58.7778282  23.0189157  39.3759513  59.6634912  23.3753991  39.4448924
  58.4948397  22.9034472  40.2830458  41.5769482   3.9868858  22.1209240
  41.5620613   4.9435365  22.0921159  42.4214458   3.7488568  21.7383099
  60.0303555  26.3418674  23.7351370  59.3583250  26.3903594  23.0552387
  59.5428848  26.3893032  24.5575452  31.6590381  17.4308407  31.3677812
  32.1895051  17.7442884  30.6352615  32.2691989  16.9282866  31.9075727
  13.6503482   5.7223338  25.9095073  13.6250257   5.1559186  26.6807175
  14.4674575   5.4899728  25.4684043  33.8972163  21.7442679  45.7922220
  33.6811185  20.9831119  46.3309050  34.5203018  21.4114380  45.1462984
  12.1178484   3.2208213  32.3188972  12.7060270   2.4683903  32.3831272
  12.6576209   3.9691904  32.5734973  18.1978929  76.0744762  27.5364280
  17.4416959  75.6192541  27.1660638  17.9673731  77.0021296  27.4859118
  43.8034582  20.0636649  44.2643309  44.3314028  19.4893658  44.8190260
  44.2813587  20.1019883  43.4358501   1.8182161  54.8382950  36.3314843
   1.7634188  55.0508213  37.2631836   0.9104237  54.8543739  36.0283566
  57.4888182   7.4793655  20.7912159  58.2106972   6.8878937  21.0039997
  57.7828407   8.3366358  21.0992265   0.9536383  46.7617226  17.8328192
   0.8528212  47.1886587  16.9820571   0.0867722  46.8204212  18.2344770
  77.4864197  56.5222216  59.5461988  76.9008207  56.6904688  58.8079596
  77.5381088  55.5678368  59.5982409  32.3028922  56.1136341   8.3733869
  33.0892563  56.5310526   8.0217856  31.9383907  55.6278658   7.6335227
  48.2637548   7.8228670  33.2406020  48.2442999   8.7436426  33.5014200
  48.4195805   7.3462230  34.0559292  48.2125282   4.4848520   9.9910486
  47.2776365   4.2891392   9.9285883  48.4118176   4.9614674   9.1852242
  50.1597023  18.1136549  25.9692717  49.9122858  17.4094212  25.3700447
  49.7625303  18.8990223  25.5928612  11.6921413  59.1776848   0.5900680
  11.3722813  60.0450993   0.3420393  10.9318566  58.7437201   0.9772041
   1.6339511   0.7465839  25.2716422   2.5316155   0.8531276  24.9568748
   1.1520296   1.4697744  24.8704195  40.8991480  12.6813197   9.2597413
  40.8048773  12.8699923  10.1934159  40.5288935  13.4477818   8.8219285
  37.3700309  23.9626098  14.7359014  36.5686035  23.4588552  14.5938540
  38.0361414  23.5018301  14.2257953  59.3290091  13.3584917  27.1791339
  59.1319132  12.7483797  27.8898716  59.9691057  13.9637029  27.5535989
   9.3546325  72.3545456   3.6681840   8.8202852  71.7120934   3.2013208
   8.7681305  72.7165031   4.3324384  15.4721522  10.6682932  33.8877606
  15.7874453  11.4717257  33.4738564  16.1010301  10.4973257  34.5888424
  54.1897440  10.2628696  19.0996456  53.5973644  10.6394851  19.7504008
  54.6059370   9.5285958  19.5511520  36.3832355  69.1929483  45.5054331
  37.1203041  68.8682604  44.9881935  36.4489484  68.7234831  46.3370085
  47.8980780   0.6012660  45.2556515  47.6803350   1.3633898  45.7922983
  47.4644470  -0.1314447  45.6930637  13.2905471  76.0341072  39.9997211
  12.7607620  76.1067343  39.2058134  12.9682231  75.2428007  40.4311991
  63.8234186  22.4216771  18.4071434  62.9177427  22.1537280  18.2516146
  64.2737865  22.2328901  17.5838828  17.9758620  60.7615709  18.1661856
  17.2647905  61.3406801  17.8918827  18.7152648  61.3485050  18.3243704
  60.1203728  20.8705544  36.7200756  60.2553701  20.2493453  37.4356937
  60.4932451  21.6913199  37.0418525  48.9638996  67.1954536  16.6924155
  49.5925522  67.0122194  15.9942377  48.2160425  66.6314125  16.4954352
  68.3925200  21.5554786  25.5581880  68.5526991  20.9342813  26.2686014
  69.2645311  21.8539643  25.2998638  32.9463318  -0.0994080  11.5822542
  32.4966660   0.7081301  11.3334262  32.3563036  -0.5189055  12.2084486
  10.8881998  33.1679726  66.5647984  11.1542892  34.0646982  66.3615513
  10.1116514  33.2675576  67.1155119  44.3026733  12.6998281  25.0746942
  44.4472075  13.2772100  25.8243418  45.1036835  12.7754939  24.5561504
  51.0067797   7.8077888  21.2065554  51.3408804   7.0489794  21.6849041
  51.6234159   8.5106266  21.4115095  58.0262566  68.0203247   5.3117144
  57.7189541  68.6186314   5.9927607  58.2827663  67.2292948   5.7857525
  63.5700130   3.2344639  50.7501888  63.7209702   2.3276517  51.0168982
  62.9251814   3.5640404  51.3761330  48.6982965  20.7325935  15.5621755
  47.8664732  20.4962707  15.1517391  48.9076805  21.5937638  15.2005470
  23.4449005  58.5613489  53.9433765  22.9004622  58.4462786  54.7222090
  24.3392038  58.4177876  54.2529583  34.1502380  66.0584545  18.4718597
  34.4629812  65.5377483  17.7320695  34.8292780  65.9586430  19.1390729
  78.7557745  75.4446316  18.4765458  77.8976583  75.7478905  18.7730324
  79.3608093  76.1346483  18.7486517  34.5821476  18.0125928  12.8115320
  33.6283016  18.0582941  12.8772628  34.8523331  18.9106762  12.6200175
  14.9011147  70.2435923  18.4387767  15.7181120  69.7543192  18.3420384
  15.1315689  70.9867477  18.9963126  45.6227684  12.2028077  21.0637307
  45.2398539  11.3831997  21.3765407  45.8864641  12.6633656  21.8603373
  10.3625989  75.1244068  43.6697578  10.3110898  74.1747618  43.7781382
  11.2965858  75.3025818  43.5595083  23.3635640  76.3221645  40.4130983
  23.1715894  75.7935190  41.1876392  23.0555630  75.7913876  39.6784973
  55.4407644  10.0816965  38.7565780  54.5325661  10.1680410  39.0463185
  55.4158354   9.3928075  38.0924678  55.3447819  23.5127783  19.1737926
  56.0495663  23.6865783  19.7977352  54.5894337  23.9812374  19.5290792
  42.6717567   5.0449443  30.7651711  42.5377750   5.4307121  29.8994565
  43.1463861   4.2315048  30.5940652  25.2964711  75.0034285  18.8936865
  25.9438419  75.1266384  19.5879221  25.1127696  75.8881140  18.5777438
  47.2624063   4.5470464   4.1522917  47.7474976   4.9791017   4.8553181
  47.9395103   4.1668856   3.5926142  48.9645958   0.8171196   2.5589761
  49.3836594   0.8194609   1.6983871  48.1402445   1.2848677   2.4252318
  26.9324136  18.8431370  12.3430133  26.0670424  18.5313153  12.0781898
  26.9027543  19.7880495  12.1930385  22.2856665  16.5122557  24.0648460
  22.7785563  15.9646881  24.6759629  22.3861170  17.4012375  24.4052172
  27.7616835   3.3959526  15.4595912  27.4493003   2.4919280  15.4223168
  26.9924212   3.9048120  15.7155836  81.2193108  27.3365855   4.3353736
  81.4806271  27.3453951   3.4145764  81.4686775  26.4664936   4.6467993
  64.2278147  16.8177462  26.0966492  63.6810589  16.5302849  25.3654480
  63.6463881  16.7884624  26.8564653  70.1170540  37.3789382  58.8244009
  69.1978073  37.3199296  58.5641241  70.0969601  37.3571467  59.7811413
  49.3556309  21.1100173  27.6971698  48.7507582  20.6483722  28.2778955
  48.7964392  21.6921091  27.1826720  67.3042727  26.2646127  49.7735643
  67.7271509  26.5835309  48.9762592  66.3732147  26.4402986  49.6375656
  80.0397110  45.3090858   7.3520404  79.8036337  45.5543804   6.4574283
  79.2223310  45.3838825   7.8445125  64.5398378   4.0208289  18.3680594
  64.2294216   4.4868913  19.1443717  65.4805470   3.9169496  18.5112548
  52.4304104  18.7131941  43.1785965  52.0479679  18.4258962  44.0077114
  53.3013153  18.3161974  43.1662369  78.5110331  14.4678760  22.8001857
  79.2848825  14.1654050  23.2754755  78.2996988  13.7490654  22.2044659
  56.3900661  15.9895122  16.9110632  56.1333895  15.1998401  17.3872650
  56.1891460  15.7933140  15.9959841  54.8442078  27.7250338  19.3003905
  54.4966221  28.4714341  19.7885525  54.0763187  27.1879268  19.1052258
  52.6380110  59.9088287  27.9646587  53.0977106  59.0971851  28.1794643
  52.8884649  60.5171585  28.6599541  54.3070984  10.3454351   8.4437495
  53.7447405   9.6111238   8.6902726  53.8559008  10.7554519   7.7058214
  63.4271574  26.6911578  37.1096492  64.3388653  26.9825196  37.1212244
  63.1138659  26.8492556  38.0001998  44.1095448   6.4008594  10.3345752
  43.9494753   7.2714990  10.6987095  44.4403362   6.5675038   9.4519430
  55.6602144   4.6631759  25.8062887  56.2085104   5.0724387  26.4756989
  56.2348270   4.0251505  25.3832340  11.6481531  22.0985031  12.6052284
  12.2605431  21.7419410  11.9617414  12.1115386  22.0307469  13.4400427
  45.0535488  71.8283176   1.4879707  45.7452822  71.7233992   2.1412194
  45.5140638  72.0942688   0.6920888  59.3546200  18.3750618  25.0699377
  59.4394684  17.4537849  24.8244166  59.7124052  18.8557839  24.3235278
  25.7713437  76.2804508  39.2041969  25.8412623  77.2349548  39.1878796
  24.9105525  76.1098576  39.5865154  12.6032186  28.7676954  30.8815312
  11.9586003  29.4607282  30.7386804  12.1273994  27.9570484  30.7007670
  56.1680937  13.6338389  30.2510381  55.9237385  13.8337219  31.1546803
  56.9961023  14.0955961  30.1190925  62.0899057   9.7449267  35.4435158
  62.8797817  10.1912510  35.7486725  62.3895073   9.1970557  34.7180462
  61.9500494  15.8599043  49.1431999  62.5029612  15.2842772  49.6715641
  62.4138594  16.6971970  49.1361189  60.2697229  64.7324610   2.8813133
  60.5574846  65.2690744   3.6198750  59.5597267  65.2352905   2.4821910
  66.4783478  22.0840120  45.3782415  66.1691284  22.8989363  44.9826241
  66.2313080  21.4044547  44.7510242  29.0969539  15.7349873  34.5540833
  29.1763806  16.1178386  33.6803842  28.9099002  16.4795852  35.1257610
  74.3631983  36.5057588  20.8251953  73.6520720  36.5058541  20.1844716
  75.1613283  36.5265226  20.2971840  48.8951302  20.4817438  24.7292376
  48.5715675  21.2906718  25.1256943  49.4695568  20.7747841  24.0218544
  80.8286190  31.4498591  10.0362277  80.1470280  32.0997000  10.2076328
  80.5546093  31.0239053   9.2240000  34.5821810   4.8891374  16.5700567
  35.1407218   5.4887772  16.0753870  33.7190723   4.9771658  16.1656749
  35.1540375  19.9338400  49.0180254  34.5242453  19.5032918  48.4399080
  35.9751678  19.4649661  48.8692522  30.2557206  61.3604641  42.8898954
  30.5067039  60.5693436  42.4130535  30.4708505  61.1683702  43.8026094
  70.0269413  12.3394763  18.3121717  70.5109072  12.4842072  19.1252291
  69.2221975  12.8466451  18.4189367  71.3116837  14.2705953  25.4281354
  71.1511946  14.5738339  26.3217354  71.0753584  13.3431602  25.4438543
  48.1363440  16.3813269  31.2509775  47.6007891  17.1712971  31.1777735
  47.7547073  15.9004378  31.9853687  80.3773403   3.9437926  40.1232147
  80.1947212   3.0123407  39.9996090  81.0890770   4.1315812  39.5113373
  44.8435783  31.4841032   5.8407044  45.0673532  31.0184979   6.6465378
  45.2333736  32.3515821   5.9491807  58.3536291  22.6704526  29.2600203
  57.7505398  23.0414510  28.6159086  58.1047440  23.0834746  30.0868821
  59.6846724  13.0985236  22.7692246  60.0767803  12.7561963  21.9659233
  59.6080589  12.3356771  23.3423138  57.3756483   0.2594454  54.7779703
  57.5107363  -0.6864184  54.8356867  58.2324365   0.6092722  54.5335007
  64.7692680  29.0307188  26.6311336  65.5811834  29.4554353  26.9079804
  64.1226101  29.3025899  27.2824049  31.3611388  72.0222330  31.0792470
  31.4026761  71.0659599  31.0863686  30.7392120  72.2297668  30.3818440
  66.7835140   8.8755089  23.3769417  67.4682808   8.6446220  24.0046501
  65.9678555   8.7923926  23.8709331  31.5349674  71.9529390  40.7243729
  31.4876342  71.0409307  40.4376125  30.6274390  72.1923351  40.9122849
  32.5338912  76.4041042  30.3263068  31.9074154  76.1035538  30.9846616
  33.1795430  76.9074869  30.8222651  51.1634970  32.4152398   3.0079684
  50.6201744  33.1942344   2.8888160  51.9581938  32.7399707   3.4313434
  55.6383419   6.6610420  23.5203004  56.3589191   6.0448277  23.6517620
  55.0821924   6.2425613  22.8631830  77.0640039  32.3467898  28.5907388
  76.7169952  33.1156349  28.1383014  76.4522028  31.6438365  28.3721375
   6.8834615  32.3724103  26.8964529   6.3279372  31.9857979  26.2195826
   6.8550974  33.3130026  26.7211938  50.9069014  17.2812402   9.1058123
  51.4669847  17.8440154   9.6404332  51.2261963  16.3949513   9.2754412
  67.9819059   7.8696376  25.7540989  68.5655642   7.6686531  26.4856601
  67.1015358   7.7490097  26.1099529  78.5957479  30.8138371  30.3441215
  77.9728270  31.4241576  29.9495220  78.0594778  30.0722718  30.6247091
  31.0055232  69.6724701   9.1255331  30.0694442  69.4801998   9.1804808
  31.4272237  68.9403963   9.5754945  52.7117682  12.4049211  37.2033215
  52.7086020  11.5875375  36.7052197  52.4898624  13.0782056  36.5601444
  38.6679912  21.4257836  11.0301673  38.6490726  20.5364513  11.3836646
  38.8240838  21.3078141  10.0931776  73.8559341   9.7467947  30.1744938
  74.7702169   9.7569281  29.8912621  73.8366747  10.3181827  30.9422040
  38.8489485  76.3805151  19.6424782  38.1392646  75.7393980  19.6031094
  38.5930800  77.0596695  19.0183699  61.0219431  15.4384124  28.8751507
  60.5742741  16.2311363  28.5794950  61.9418621  15.6940651  28.9431429
  64.7327757  30.9649897  36.7974210  63.8016129  30.7442117  36.8180537
  65.0786495  30.4749203  36.0514760  26.6781139   0.7842878  47.2118378
  27.1896076   1.5643135  46.9969702  26.0067034   1.0975832  47.8178740
  73.0657244  34.6730161  29.9626589  72.5198746  33.9855695  29.5809531
  72.4625778  35.1876521  30.4989386  50.1150179  29.7890234   3.2422760
  50.3926277  29.4633389   4.0984839  50.4538965  30.6834459   3.2048556
  22.4437261  18.4159613  18.6397934  22.2732472  18.1586885  17.7337146
  21.6057253  18.7553501  18.9541221  49.5380974   3.9888549  52.0036697
  50.0478077   4.7972998  52.0570087  50.0953293   3.3864632  51.5108681
  66.2237597   6.9989508  21.1048675  66.0714436   7.5828987  21.8478608
  66.7733240   7.5079381  20.5089307  25.8022735  76.6947411  14.0608633
  26.6851422  76.6374620  14.4262266  25.2456424  76.9033005  14.8111260
  53.8210964  74.1333771  19.6992064  54.7206926  74.4429779  19.5938253
  53.4232998  74.7559071  20.3078485  41.4304352   9.8479509  23.5520959
  41.6253805  10.1857746  24.4262266  40.7676554   9.1730213  23.6984730
  64.3412256  63.0031824  18.5748684  63.4109116  63.2283354  18.5819817
  64.6594715  63.3265400  17.7320206  49.7067833  12.2472727   9.4322664
  49.1078901  11.9649708  10.1235461  49.6798229  11.5396166   8.7882727
  30.1446366  15.1949227  15.2108979  30.7441473  15.1051736  15.9516859
  29.3177629  15.4736590  15.6043649  68.3521748   2.5430927  34.9335742
  69.0579844   2.8909221  35.4786277  68.7813950   2.2970945  34.1141295
  56.5609884  16.8608701  37.3374510  55.6706047  17.0453322  37.6364946
  57.0315790  17.6847792  37.4637389  64.8587799  21.0486579  42.9956007
  63.9282513  21.0541487  43.2199287  65.0853491  20.1205611  42.9361534
  52.2142744  13.9720583  44.3050766  51.4439344  14.5375562  44.3600178
  52.9015303  14.5371425  43.9521027  54.1530228   8.5754853  15.2202725
  54.3942404   8.1206614  14.4133139  53.1964207   8.5452771  15.2354562
  19.0633726  66.1656570  37.4271131  19.2828286  66.6064358  36.6062713
  19.7924364  66.3718748  38.0120683  78.2609034  22.6285601  37.1469140
  79.0024281  23.2303667  37.0821261  77.5815868  23.1328392  37.5946474
  64.7934818  19.6464622  28.6472201  64.7131824  19.8263061  27.7105021
  64.0909719  20.1567101  29.0501571  62.4034023  28.2451391  23.0622244
  62.0968294  27.4498081  23.4977627  63.3144617  28.3352375  23.3416605
  57.4583864  13.7476480  40.3915405  56.5500689  13.6151397  40.1202011
  57.4290943  14.5187080  40.9579706  63.4562302   2.7809444  26.6700268
  64.2050314   3.1765729  27.1161294  63.2019663   2.0490006  27.2320247
   2.0539483  25.6921387  17.6632273   2.0608774  25.9863830  18.5740542
   2.8231263  26.1062193  17.2719014  80.9740925  38.6181331  33.9793849
  80.1492882  38.1332111  33.9516234  80.9952450  39.0048289  34.8547435
  45.5832767  18.9782906  23.0367732  46.1117268  18.6752748  23.7751174
  46.0173130  18.6131036  22.2657442  78.9188862  19.8422241  43.7975454
  78.5395002  19.1546309  43.2502699  79.3188763  20.4500008  43.1755781
  73.8310814  11.3621831  26.5017319  73.5317945  11.4002991  25.5933237
  74.7768545  11.4996302  26.4482808   2.1719335  24.7010493  28.8572502
   2.6675981  23.9509821  29.1858053   2.7489793  25.1038027  28.2083750
  64.4723940  23.2021904  32.7719736  63.5702467  23.2879806  33.0801988
  64.4915724  23.6898875  31.9485569  68.4907818   1.7342894  17.3258328
  68.5210323   0.8050244  17.0982742  68.5693502   2.1889320  16.4871681
  52.3500299   2.8876159  52.9031944  53.1764174   3.1663933  52.5087309
  51.8461990   3.6957115  52.9999876  70.7098293  20.7371306  38.0504894
  70.5285263  20.4758620  37.1476626  69.9011850  20.5409265  38.5235953
  50.1041365  22.4831462  22.9368615  50.4631281  22.4801373  22.0495367
  50.8634138  22.6260352  23.5019374  63.1407833  26.5365481   3.6221191
  63.4615660  26.0566258   4.3856668  63.5867119  26.1300874   2.8790393
  79.6008348  75.9717226  44.1186047  80.5157852  75.7520247  43.9430380
  79.6080589  76.3389826  45.0025177   5.9852839  23.3378863  28.8748097
   5.2356017  22.8608322  29.2306566   6.7490709  22.8707743  29.2134356
  31.0009575   4.5474714  57.2800922  31.9283295   4.4694328  57.0562124
  30.9631467   4.3507379  58.2160902  59.8096132   5.7200646  20.7294607
  60.7336712   5.5497384  20.5468607  59.4154215   4.8507443  20.8010602
  59.6549511   4.3751097  12.2638726  59.5401335   5.2884287  12.5263548
  59.4811869   3.8733590  13.0602920  67.5958157   0.8548439  28.6289907
  68.1078053   0.3024120  28.0382991  66.6964293   0.5426980  28.5294843
  52.8649807   1.5739714  37.9653668  53.2937002   2.3283315  37.5611711
  52.0422459   1.4803460  37.4851823  63.7490416  13.8837826  34.9781704
  62.8530884  14.0771675  34.7023034  64.2715931  14.5975089  34.6124268
  67.4194574  11.0633779  30.3599668  67.7003956  10.2966177  29.8605824
  66.4634228  11.0167205  30.3528571  62.9958582   5.4234183  41.6137218
  62.6341820   5.9114045  40.8739328  63.8491917   5.1185399  41.3053322
  73.4646988  21.3675499  12.4403179  73.9715481  20.5587792  12.3680210
  73.9738035  21.9167805  13.0364621  69.1223812  23.8253045  14.3636060
  69.0737629  23.8804460  15.3179789  68.9053392  22.9144478  14.1649532
  56.8692493  12.0245194   3.6714581  56.2734270  12.6651633   4.0597928
  57.7242947  12.4546134   3.6834499   2.0826319  49.5380735  59.1165924
   2.5507906  50.3607368  59.2590332   1.1943100  49.7109270  59.4284201
  55.6947374  21.8616891  15.2263224  55.4176760  22.7539372  15.4345632
  56.6506863  21.8927670  15.2640998  12.6405847  68.8384342   8.5360628
  13.3387935  68.2541275   8.2405579  13.0732286  69.4426870   9.1393322
  75.6853008  33.7006211  46.7275667  75.9411573  32.8817463  47.1520853
  74.8662806  33.9473915  47.1571541  57.5429440  37.3374057  20.8912253
  57.1432066  37.0080042  21.6961694  56.8032646  37.5017476  20.3063345
  66.3100052  25.2253771  65.0522995  66.1122036  25.8348107  65.7634211
  66.9814873  24.6463346  65.4129219  71.0857868  14.9457753  44.2192745
  70.6518412  15.5710375  43.6387873  71.1767912  15.4131687  45.0496340
  62.5973606  67.9990768  26.6773701  63.0155802  67.1522760  26.8331027
  61.7232752  67.7788877  26.3552999  57.2493744  22.8245330  33.4871316
  56.5502882  22.9139996  34.1348267  57.0787621  23.5208106  32.8528428
  28.2662392  73.4724188  35.4143858  27.5707507  73.0557060  34.9055839
  29.0769649  73.1413937  35.0278926  46.2241650  21.3862109  11.8902314
  46.7075014  22.0383978  11.3830125  46.4061594  20.5565619  11.4488792
  59.8636389   5.2662629  50.9849262  59.2436838   5.5750602  50.3242254
  59.6464825   4.3415958  51.1035204  45.4612970  28.8038754  11.9880497
  44.7735929  28.3974457  12.5154090  46.2272120  28.2455635  12.1218240
   1.9225664   1.5290210  44.9642086   2.2466531   1.6606593  45.8552027
   2.4156600   2.1558815  44.4349289  63.9736843  34.7799134  18.7788355
  64.0496349  34.3622184  19.6367371  63.4374905  34.1759872  18.2650304
  50.8891916  14.2232156  38.3533835  51.6019964  13.7069857  37.9770255
  50.2379465  14.2779613  37.6540160  52.3572063   7.7490735  28.0517197
  52.7028036   8.6375141  28.1381321  52.6740122   7.2920156  28.8308001
  69.2762709  38.1689095  19.7172773  69.7075844  38.6955881  20.3901887
  69.0111637  38.8025236  19.0505815  76.4311552  56.0767317  41.4165258
  76.1352062  56.9120979  41.0548496  75.8381367  55.4280376  41.0373688
   7.5719386  62.1420145   8.1847799   8.1671131  62.7793598   8.5794878
   7.5532556  62.3746538   7.2564685  42.2887993  75.2564192  21.8444586
  42.9667902  75.7572412  22.2980475  42.5962543  74.3506193  21.8795800
  45.3959179  18.4621823  19.9245811  45.3235292  17.6222742  19.4712102
  44.7338867  19.0157461  19.5104468  34.1955853  75.9443331   8.7054729
  34.6566367  76.6566801   9.1484511  33.7726140  76.3626003   7.9555511
  65.3592396  18.5114288  42.9396772  65.9398460  18.5783231  42.1816158
  64.5664454  18.0976295  42.5983858  41.0361814  66.4890194  12.1244717
  41.2738514  66.2976599  13.0317342  41.6646385  67.1559000  11.8478036
  50.4764271  27.2102714  47.6362705  50.7164860  27.2412395  48.5623646
  50.7795286  26.3524294  47.3388338   2.6042792  13.1155169  44.1039133
   3.3205760  12.5316083  43.8545084   2.9718813  13.6626279  44.7980070
  62.2439241   1.5735435   9.5733446  62.3964024   1.9029418  10.4590535
  62.9186964   1.9954342   9.0414357  37.0705128  76.5382814  15.0826824
  36.9343066  75.8546448  15.7386720  38.0174565  76.6778231  15.0752378
  76.5503025  46.4603043   1.4316925  77.0578051  47.1000576   0.9323110
  76.9160986  45.6131458   1.1772396  31.6647959  20.5556965   8.4940904
  31.0096693  20.8182168   7.8474665  31.3724470  20.9622169   9.3098754
  35.9966660  23.0641246   8.4346586  35.3558350  23.7690330   8.5277849
  35.8356047  22.4932218   9.1858983   7.2414070  33.8544083  23.4457707
   6.8148261  33.9122653  22.5908351   7.0991343  32.9495597  23.7236857
  34.2186809  73.6142302  26.2889004  34.8192477  74.3329906  26.4862251
  33.7494802  73.4621000  27.1092296  52.0924759  20.4026556  27.8208208
  51.3631964  21.0220075  27.7927685  52.6500654  20.6557274  27.0851016
  51.9126320  15.9026325  32.2766614  51.2010717  15.9519327  32.9150033
  51.4777040  15.9753060  31.4270806  66.2494373  12.6473248  13.7533617
  65.3821135  12.8932571  13.4316492  66.1706448  11.7177951  13.9678299
  39.9209309  31.0780716   4.4126296  40.5720663  31.1415005   5.1113641
  39.5723438  31.9655895   4.3287936  52.9355478  25.6481171  18.8630557
  52.1330595  25.1980376  19.1270173  53.2572222  25.1451564  18.1148648
  69.6253300  21.3582397  30.9850597  68.9045286  21.3556314  30.3552413
  69.4930506  20.5647063  31.5037465  66.3369942  23.2253385  42.2827959
  66.8148088  22.6902914  41.6490364  65.7963562  22.5997615  42.7650738
  62.3689273   0.3561861  13.2686579  61.4690307   0.0461847  13.3702397
  62.8880790  -0.2313870  13.8177204  10.3579748  48.7199211  32.5108671
  10.1796377  49.6076679  32.8212380   9.6395206  48.1943274  32.8627300
  44.9860764  72.5211430  15.2154684  45.8047295  72.4994564  15.7110178
  45.1906157  72.0720530  14.3952775  28.8252854  60.5113983  65.9108686
  28.4610200  61.3235188  66.2630033  28.5925984  59.8445797  66.5569639
  38.0161929  76.9007349  44.0967846  37.9915905  76.3671064  43.3025122
  38.6400390  76.4520788  44.6675348   3.0866709  36.2339139  15.5477345
   2.8008279  36.2422895  14.6342492   2.4411583  36.7723107  16.0056365
   3.4831494  21.0034537  34.6710610   3.4033290  20.3336406  35.3501844
   2.7411151  20.8430529  34.0880609  76.6055775  36.9709969  16.2910974
  77.4643755  36.6202450  16.0551584  76.7166328  37.9210353  16.2546825
  62.5011587  29.5917058   7.0176858  61.6974258  29.1570401   6.7325306
  62.2776937  29.9763179   7.8652525  65.3221130  32.7646637  52.7320051
  65.5450630  33.3548903  52.0121717  64.5366526  32.3071456  52.4320698
  61.6567945  37.0759559  35.0853539  62.4473524  36.8675590  34.5875430
  60.9528685  36.6293621  34.6149611  59.7416592  17.8350294  28.0071950
  59.6266651  17.9199481  27.0607281  58.8730335  18.0075932  28.3704376
  69.9076557  13.9849627  32.6662374  69.1402817  13.4669912  32.9092884
  69.8902750  14.0043366  31.7093921  63.1717730  37.8590083  28.9973974
  63.0964804  38.7242317  29.3998313  62.6979589  37.9379034  28.1694412
  65.9562349  26.3812160  20.9134936  65.6647253  25.9320068  20.1201057
  66.6241503  25.8041453  21.2837815  77.1364880  23.3099985  21.1266661
  77.3706579  22.8146648  20.3417826  76.7138624  22.6683855  21.6975856
  64.8842716  21.1895156  37.5328851  64.4339800  21.8714690  37.0344782
  64.7816420  21.4537573  38.4471464  59.9363518   3.2979041  33.4107947
  59.8763037   2.7712381  34.2078209  60.4045963   4.0879887  33.6805058
  56.7944384  10.8185709  30.5074525  57.4331570  10.9777117  31.2023950
  56.4162493  11.6793883  30.3280187  13.7812757  62.6911688  28.7486577
  13.6678934  63.5051680  29.2393517  13.9106405  62.9733706  27.8431988
  77.3065519  35.8999848  31.9691348  76.7871284  35.3608108  32.5655603
  77.8627586  35.2749753  31.5041304  58.2594824  36.0222530  31.6306639
  57.3572445  36.0081387  31.9500470  58.1970453  35.7239509  30.7232785
   6.0501552  60.9381771  33.3301544   5.2961355  60.7439566  33.8868976
   6.5611130  61.5732908  33.8319373   2.8053689  11.7578793  47.5428057
   3.6168644  11.9694388  47.0813370   2.2218171  12.4916804  47.3498392
   5.0931150  38.0089164  43.6196804   5.9404045  38.1053424  43.1849003
   5.2762216  37.4598074  44.3820333  81.0679626  35.6231332  32.9735756
  80.4600430  36.2887979  33.2953787  81.7981243  36.1223984  32.6077509
  65.3820467  27.2059321  46.7993641  65.2447557  27.1493506  47.7449751
  64.5479965  27.5252390  46.4549303  79.9488497  12.4480748  29.2042804
  79.9957752  11.4966488  29.1103792  80.8586025  12.7225542  29.3193293
  73.6629629  28.5052085  20.4860997  72.7767658  28.3498049  20.1593947
  73.5768080  29.2670751  21.0591340  61.7185831  21.3864422  16.8651032
  61.0146141  20.7434297  16.9499159  62.3089218  21.0105515  16.2120795
   5.2386320  29.3880701  20.4834867   5.0357926  30.2255654  20.9002471
   4.3985623  29.0801072  20.1433778  79.1991663  34.4802499  24.5104504
  80.1240444  34.6768332  24.3614864  78.8397503  34.3410444  23.6342812
  67.2354698  30.3253055  24.7250867  67.9960680  30.7917237  24.3784165
  67.5545835  29.9081826  25.5253410  64.0656900  50.8447742  17.6717484
  63.6637306  51.6262579  18.0511487  63.9163256  50.9316587  16.7302740
   4.4755834  70.2814102  39.0600705   5.2348846  70.8389378  39.2299294
   3.7226540  70.8621550  39.1698933  68.1596851  24.4126415  28.2487059
  69.0423203  24.1222715  28.0187631  67.6544619  23.6035275  28.3281684
   7.1842963  42.7199078  10.4600608   7.1118325  41.8053007  10.7329619
   7.8235424  42.7073765   9.7477138  78.5547590  29.9677896  21.6598773
  79.2988396  30.1551938  21.0876369  77.8094149  29.8867273  21.0647964
  70.0388956  28.6938524  58.0236721  69.6211910  27.9744077  57.5502253
  69.3657684  29.3728089  58.0700493  66.5552616  37.0509028  26.4252400
  66.3866329  36.7885804  27.3302150  65.8847141  37.7076244  26.2373209
  63.6722279  31.0610723  21.5988398  63.7903595  30.1406574  21.3640761
  64.0890360  31.1449099  22.4564362  47.4988651  26.5879250  13.0800557
  47.8937006  26.8345857  12.2436976  48.2156610  26.6513109  13.7112594
  72.2394419  39.8516941  29.4449592  72.3389435  40.7697868  29.6968365
  72.4417973  39.8366880  28.5095143  64.9989891  54.7569752  40.2328920
  65.2150249  55.1747465  41.0665703  64.5539379  53.9462090  40.4795074
  75.8437586  23.9073801  42.1560144  76.7753696  24.0816498  42.2900391
  75.4718494  23.9016867  43.0379915  76.6479588  21.9100690  47.3512554
  75.7926178  22.2398496  47.6266956  77.2776794  22.4395251  47.8405046
  79.7481203   7.3110569  31.6041446  80.2852631   6.6265339  31.2052298
  78.8864565   6.9079506  31.7103195  40.6387424  36.3753104  18.0983245
  41.4773130  36.6738439  17.7463126  40.8604336  35.6098485  18.6285615
  68.6543846  35.3629827  30.1768804  69.5555782  35.2629733  29.8701525
  68.3317137  36.1412406  29.7225380  60.0125122  35.9022927  25.9812975
  59.2938948  35.2876544  25.8328199  60.4124308  35.6098700  26.8003106
  56.4320755  20.2689624  25.7059789  57.3572159  20.0657845  25.8440804
  56.0143471  20.0638080  26.5424252  70.6924725  75.3141117  31.4544392
  69.7704077  75.3296232  31.7109323  70.8559084  76.1862516  31.0954165
  78.4796667   5.2891922  28.8074970  77.9393196   4.6185654  29.2252493
  78.4830284   6.0162032  29.4301319   1.1509755  15.6496704  27.0979834
   1.2807401  15.9334612  28.0028892   0.3525139  16.0976219  26.8186450
  19.6049249  49.0404510  21.1882639  19.0913796  48.2548666  21.0002184
  20.3810501  48.9575481  20.6341982  74.3276596  26.4706373  41.5241385
  75.0130510  27.0627999  41.8336725  74.6606541  25.5951071  41.7210865
  73.9424610  20.1783204  43.1549168  74.6822929  20.3579783  43.7350941
  73.6578083  21.0417342  42.8553772  80.3089809  34.4485760  60.5071354
  80.2747822  33.5054302  60.3473234  81.1452866  34.5859432  60.9520578
  44.6567774  13.9724767  27.5068831  44.4348145  13.7670398  28.4150457
  45.0878620  14.8258722  27.5528479  67.5611591  44.4297314  15.0198293
  67.0842552  43.6790085  14.6659803  67.8009462  44.1643047  15.9076822
  68.2770014  10.2966356  13.3118105  68.2038546   9.4399685  13.7325287
  69.2097282  10.5068684  13.3571255  75.9908485  26.9224763  19.3633926
  75.8949471  26.1801887  18.7666976  75.2008772  27.4449062  19.2246759
  71.8649197  35.8524919  19.7699690  71.7760086  36.0531616  18.8382721
  70.9688950  35.6951737  20.0676608  74.1327381  74.6046829  62.3634529
  73.8626575  73.8968801  61.7783833  74.5493078  75.2457380  61.7874765
  12.1267259  25.6371284  38.3546567  11.4629257  26.3250566  38.3061290
  12.0280898  25.1509428  37.5360441  78.4138918  39.5573902  41.4391470
  78.5733557  39.6365786  42.3796415  79.1978788  39.9253535  41.0314751
  75.5609417  37.3863244  27.5834274  76.3811636  37.1734357  27.1382880
  75.6883526  37.0780897  28.4806395  77.1339750  18.9066529  10.2102804
  77.7664089  18.3814096  10.7005644  77.6632357  19.5769298   9.7780269
   1.7840707  33.6005759  43.1085873   1.3477439  33.7810421  43.9412260
   1.0700598  33.4083843  42.5007391  80.6756306  51.3572598   1.5200491
  81.4208031  51.7908621   1.1041884  80.9433937  50.4414368   1.5962374
   8.5295957  45.3362846  59.0563393   8.0891800  44.4912624  58.9657879
   9.1416955  45.3673601  58.3210850   4.6838897  26.9119167  17.1529937
   5.2681470  27.6572609  17.0139432   4.8217848  26.3534951  16.3878894
  68.5459280  27.3296976  14.0114844  68.1985521  26.5724015  13.5402489
  68.1064796  27.3050904  14.8614895  76.0176659  44.6872234  19.4853163
  75.5463600  44.2098427  20.1681113  76.1487961  44.0429735  18.7896299
  71.8381643  34.8755360  26.6113019  72.2567034  34.4381404  25.8698583
  71.9551849  34.2703223  27.3435974  61.8223667  11.1473835  28.4298277
  60.8981180  10.9604919  28.2653117  62.0334864  10.6400836  29.2136049
  70.4324245  27.4443269  38.9126754  71.2596989  26.9775915  38.7943101
  70.2399588  27.3576188  39.8463082  58.5198259  25.3410697   5.4867822
  58.5810566  25.2612948   4.5348802  59.4198704  25.2340055   5.7944983
  61.9580364  29.5516825  36.8840313  61.1804438  29.2317843  36.4265966
  62.5875616  28.8337302  36.8171787  65.5867243  34.0608573  34.2194390
  64.7105408  34.3459773  34.4787455  66.0069323  33.8021445  35.0396395
  81.7286587  33.6028266  38.9677215  81.9591236  34.3974066  38.4863067
  80.8145142  33.4390044  38.7359262   4.4588315  33.9826941  39.8860621
   5.0094283  34.4848824  39.2853284   4.1801393  34.6192312  40.5443811
  75.5777979  28.4741831  34.8091078  76.3444901  29.0320945  34.6781540
  75.0441504  28.9465880  35.4480791  63.6733341  36.5190554  33.3434486
  63.4266949  35.6375456  33.0635571  64.5810652  36.6165042  33.0557585
  69.0863991  41.5121651  26.4709377  69.9269629  41.8305683  26.1418366
  68.4403610  42.1117258  26.0975766  12.7509618  44.1442347  31.9402242
  11.9555891  44.6284819  31.7186022  12.5998282  43.2644463  31.5947294
  68.1117678  14.5514941  27.2264695  68.1970882  13.7780917  26.6689730
  67.7112675  15.2115810  26.6606808  67.9369831  20.6548309  38.0537367
  67.4643564  21.0998249  37.3502898  67.2982883  20.0449300  38.4229517
  28.6178994  32.8654242  26.6828728  27.8036642  33.2038283  26.3104010
  28.8410068  32.1164322  26.1301804  68.2181597  39.6466279  34.3436575
  68.9373207  40.2730131  34.2618799  67.8322840  39.8353314  35.1990652
  76.5877390  36.9014931  23.0690813  75.6666136  37.1573687  23.1169367
  76.8195152  36.6715908  23.9688921  70.5364180  36.6449380  13.8139522
  70.2375937  36.1042380  13.0828047  70.0156212  36.3478231  14.5600927
  68.8952351  29.3311596  50.3668451  68.6701488  28.9587450  49.5142746
  68.0955362  29.2428899  50.8854294  67.5822735  44.4186974  17.8773403
  67.4495935  44.4433260  18.8249803  68.4538555  44.7925615  17.7477252
  69.9814510  53.6477995  23.7094951  69.4692516  53.3534527  24.4626498
  70.7401562  54.0877199  24.0929985  68.9572525  16.7395473  16.6976762
  68.0789804  17.0573032  16.4881611  69.1515064  16.1019731  16.0106552
  70.7007313  24.1231465  31.7864466  70.6701994  24.6064258  32.6121211
  70.2523041  23.2987142  31.9747519  78.7964344  35.2908182  15.0692916
  77.9735565  34.8962069  14.7805214  79.2284870  34.6016264  15.5738485
   5.3205061  33.4575343  20.6935835   6.1034441  32.9287553  20.5398512
   5.6476855  34.3540359  20.7675481  73.5068560  24.3906641  29.0150070
  73.1620979  23.5846233  29.3992901  73.2578087  24.3416023  28.0920768
  79.3427134  40.8048868  31.6974449  79.4364023  41.4046240  32.4375582
  78.4068871  40.6060314  31.6672778  74.6757889  50.7166052  31.1847329
  74.7946215  50.0106287  30.5493522  74.5824146  50.2688599  32.0255876
  79.7160053  40.2872515  13.3577156  78.8795233  40.3882980  13.8119435
  79.5128441  39.7370267  12.6012695  75.5938435  33.9170218  43.8806534
  75.7107973  33.8686180  44.8294497  74.8712111  34.5329475  43.7595177
  46.3320398  76.9622374  32.3221016  45.5622768  76.5281773  31.9542885
  46.1845303  76.9506550  33.2677960  67.4387789  29.9739718  35.5471969
  67.6854753  29.1380191  35.9428692  68.2141018  30.5257821  35.6502104
  76.8239784  27.8759861  13.4841907  77.6195860  27.8750086  14.0164006
  77.1350670  28.0078912  12.5886142  16.1543369  24.5648646  23.5461068
  16.2120247  25.3054881  22.9424667  15.9363663  24.9602246  24.3901515
  67.0798302  20.4365015  32.6788616  66.1295033  20.4178405  32.7918553
  67.2193098  20.1512218  31.7758703  55.6781244  11.6218400  27.2425747
  56.4570379  11.3047230  26.7854500  55.4877424  12.4662292  26.8339276
  73.4742022  46.9443417  26.7979503  73.2049847  46.3239431  26.1205578
  72.6648426  47.3878431  27.0518708   0.9447304  23.6730886  32.8594947
   1.3606006  24.5063162  32.6381040   0.9074932  23.1962252  32.0303702
   1.7260319  27.8648806  50.9087324   1.4377370  28.1527090  50.0425482
   1.3919117  28.5334206  51.5067720  67.3991060  19.7272027  30.1310325
  67.9283571  18.9305437  30.0928020  66.6164637  19.5195425  29.6205616
  50.3604317  71.6601086  42.3032045  49.5892620  71.7481899  41.7430496
  50.8418322  70.9200382  41.9333601  53.2838011  29.9659491   2.5333053
  53.0869722  29.2534947   1.9251108  54.0577602  29.6666360   3.0104095
  72.8237534  26.1180377  38.5096765  72.5135708  25.2615762  38.2155871
  73.6423349  25.9314084  38.9693761   7.2772938  39.9775577  11.3707876
   8.0964965  39.5224142  11.1758959   7.4099058  40.3459358  12.2442544
  79.6399832  25.8678627  17.7638710  79.9747610  25.3581667  18.5016823
  79.8080301  26.7785525  18.0060172  69.9933529  30.3623056  27.2008777
  70.3649616  29.7448230  27.8308415  69.1020155  30.0462794  27.0529747
  68.5583162  55.0493336  10.5034053  67.9289341  54.8184347  11.1866295
  69.0752077  54.2539597  10.3752053  56.4443398   9.1154379  58.3203745
  57.0354605   8.7450248  57.6649332  56.8836975   8.9570516  59.1559029
  38.9155149  65.6301451  51.0791063  39.0613246  66.4020300  50.5321503
  38.2187653  65.8913898  51.6812038   0.5976731  44.3612051  14.4775915
   0.3403652  45.1478291  13.9967096   0.1790135  43.6428690  14.0033042
  70.0242329  41.3236761  36.9023299  70.1658964  42.0587730  37.4988174
  70.2336502  41.6740036  36.0365081  64.6012020  18.7025154  35.8734441
  64.5825386  19.6274698  36.1190915  65.4510736  18.5844851  35.4491544
  75.5809736  18.7758160  25.3234315  74.7649908  19.2739332  25.2756333
  76.2454319  19.3706715  24.9757648   1.2937056  33.8430953  21.0102582
   1.6527559  33.0462170  20.6200051   0.6152982  34.1255116  20.3968787
  71.6329241  30.0823259  39.7163987  72.3790884  30.5429363  40.1002073
  72.0118046  29.5598602  39.0094948  72.7859926  27.0584059  35.9925890
  72.6907206  27.0728302  36.9449282  73.5873365  26.5577292  35.8396029
  75.7315254  22.5919485  16.7694795  75.7278156  22.6599717  15.8147073
  75.5164909  23.4738255  17.0732665  79.2996645  13.8009775  16.8941426
  79.3469715  13.8695180  17.8477132  78.5176849  13.2737851  16.7304087
  69.7648478  33.6128736  36.9030452  70.7073593  33.6439919  36.7389274
  69.6351290  32.8064227  37.4020839   3.6209875  32.6907754  36.3348055
   3.2617003  32.2064304  37.0781469   2.8525737  32.9709840  35.8375597
   5.7184815  36.8059063   3.2161140   4.9419156  36.3893485   3.5898215
   6.2774563  36.9912004   3.9707297   6.6870177  18.2250237  58.7226772
   6.4975709  17.2919416  58.8211679   6.7324650  18.5561717  59.6196222
   6.4467198  23.4618187  11.9866657   6.5492100  22.5249505  11.8193054
   7.3191452  23.8279080  11.8414629  65.0652838  22.3822999   8.3019572
  64.3695164  21.7416906   8.4494746  65.2132034  22.7773786   9.1611803
  53.0010605  38.5368371  11.2847269  53.8966608  38.8117003  11.4811540
  53.0182457  37.5838470  11.3727438   6.2331235  14.1558719  36.1912870
   5.8217317  14.9669337  35.8926773   7.1533448  14.3867254  36.3182974
   2.6182085  41.5840912  19.5887780   2.0380643  41.3175344  18.8756061
   2.4619547  40.9389925  20.2784634  81.4971161  41.6704178  29.6570349
  81.0443020  41.0422134  30.2196574  81.9192314  42.2764492  30.2659535
  76.8565702   3.5467899  21.4950514  76.7568111   3.5144925  22.4464893
  76.5879345   2.6779449  21.1964273  16.1700118  62.2937012  23.3029747
  16.2337422  62.8003597  22.4933648  17.0670819  62.2590637  23.6350870
   5.9936458  47.9424191  24.0906906   5.8349538  47.4668550  24.9060965
   5.6189477  47.3829985  23.4103370  50.3957224  75.3788805  25.3187752
  51.2752676  75.0134134  25.4140234  49.9945974  74.8592567  24.6221256
   4.0345660  36.3107824  37.3162246   4.8505110  35.9063911  37.6110697
   4.0848041  37.2117972  37.6354122  10.0596297  11.9317186  48.6017799
  10.0691688  11.6419494  49.5140171   9.1361290  12.0983183  48.4130383
  68.0354691  15.8407497  10.2614570  67.8308201  16.7681098  10.1416457
  68.3472729  15.7789898  11.1643374  69.4283438  36.8622637   6.2040317
  68.8391018  36.1898327   5.8621794  69.2116976  37.6481175   5.7023072
   1.2282690  28.4155560  24.3857408   1.7044389  27.7929211  24.9351215
   0.3310091  28.3909464  24.7182322  70.5521107  24.0507627   6.9106603
  69.6728373  24.4022465   7.0505673  71.0645962  24.8007154   6.6087383
  69.8000336  28.9710569  29.7839856  69.7712755  29.6913648  30.4137182
  70.0131750  28.2007718  30.3107357  77.5383377  25.0525403  32.7301455
  77.3807669  25.7254148  32.0678425  77.0064020  24.3087554  32.4472022
  62.5187159  40.0071955  13.3056176  62.5875378  39.2489696  13.8857782
  63.0648661  40.6756544  13.7192845  52.2151613  72.0307302  35.1665354
  52.2671795  72.5857210  34.3883896  51.8373585  72.5967932  35.8396363
  59.7592306   0.9568537  38.2926726  59.1106367   0.4440131  38.7749076
  59.8501635   1.7644410  38.7984037  73.4586096  29.9112725  37.6837373
  73.7848377  30.7624984  37.3918080  72.7100420  29.7335267  37.1142745
  73.5305882   3.3228230   6.3563359  72.6719046   3.2316202   6.7693484
  74.0423155   3.8390201   6.9791555   4.9834880  23.7270141  22.1564174
   5.4730660  23.3349419  21.4333510   4.6275961  24.5378184  21.7928672
  67.5793171  28.6817527  22.3470020  67.4035120  28.8246465  23.2770038
  66.8771124  28.0993700  22.0572257  45.2954674   2.6776451  63.2107878
  45.5681229   2.5478208  64.1191053  46.0823679   2.4974912  62.6964283
  62.1481085  17.2345304  36.7794299  62.8169584  17.8299153  36.4412260
  61.6701937  17.7537274  37.4261642  75.8909750  28.8670278  39.1681123
  75.2467823  29.0510058  38.4844422  76.7299843  29.1145515  38.7794971
  75.0188637  26.8708110  32.3456335  74.9150753  27.3516703  33.1667519
  74.1906977  26.4036965  32.2352958  64.3039370  37.9349399  23.0304050
  63.9679480  37.1666956  22.5687289  65.1006031  38.1706333  22.5550079
  66.4433908  37.6354265   1.2555718  66.6270113  38.5441899   1.4936203
  67.0125246  37.1187377   1.8259658  63.3352184  49.8219013  54.7215843
  64.2101431  50.1007509  54.9917412  63.4779930  48.9911079  54.2681170
  65.4840899  26.0366893  28.5685539  65.7817698  26.8394804  28.9965057
  66.2093830  25.7875109  27.9957628  80.3451920  23.8146400  30.8857250
  81.2249088  23.4842634  30.7035637  80.4898262  24.6185803  31.3847160
   2.8755495  21.9954610  17.3113537   3.5483146  21.3240910  17.4248576
   2.3842339  21.7141199  16.5395451   1.1086552  42.9032230  26.2727737
   0.2758824  42.9547024  25.8036566   1.1850037  41.9830084  26.5249729
  63.3206415  54.7551012   0.3568742  63.5130501  53.8879013   0.7134902
  63.3623123  55.3398752   1.1135338  73.1977558  47.8155375  39.2346191
  72.3045063  47.6787233  38.9189959  73.6143064  46.9575024  39.1540408
  39.9510407   6.3396382   1.5637144  39.8066306   5.5137253   2.0254993
  40.8966827   6.4794862   1.6130921  74.8829651  50.1847792  20.7104468
  75.4198360  50.2807760  19.9238181  75.4442596  50.4917669  21.4224410
  11.6126204  67.7541971  17.8395855  12.0887828  67.1315193  18.3889282
  11.5856290  67.3405600  16.9767940  65.4118872  45.6498194  13.8088262
  66.1418056  45.1798868  14.2120790  65.7524776  46.5300989  13.6496353
   3.2547706  52.6462936  30.0115824   3.5775551  53.0676413  30.8081436
   2.8888452  53.3628368  29.4930315  75.0946856  28.5823560  48.6321831
  74.8564196  29.4304204  48.2576895  74.5665216  28.5148907  49.4276237
   7.3124963  29.7508383  26.2587118   7.4224919  30.6300402  26.6208410
   7.6511794  29.8154926  25.3657699  68.7398672  72.2305489  16.7894471
  68.0995464  71.5213490  16.8465221  68.9239073  72.3123360  15.8536732
  70.5711460  32.9310155  10.2669013  69.6929359  32.5620079  10.1730227
  70.4321289  33.7727308  10.7009757  51.9585323  29.3329668  56.6769457
  52.5210190  28.7625647  57.2008610  52.5670385  29.8512602  56.1503315
  72.6146984  54.0975952  46.5922546  71.7199278  54.0577316  46.9299316
  72.5126171  54.0795183  45.6406879   0.7439920  57.0316219  29.1381574
  -0.1972586  57.0104361  29.3108726   0.8288426  57.5477028  28.3364749
  34.0156913  26.2477040  24.8626709  33.7888098  26.0375166  23.9568138
  33.5900760  27.0891547  25.0271130  62.7568293  40.9970856  22.1073270
  62.1713734  40.6963158  21.4123368  62.5274897  40.4574680  22.8639293
  67.3124743  62.4740219  12.3881960  66.6564751  61.7993498  12.2129416
  68.1072092  62.1514845  11.9632244  74.9499750  49.3964624  33.7238765
  74.6935368  48.5746717  34.1423631  75.2283192  49.9572897  34.4479132
  64.4102669  64.2847729  37.4519539  63.6275005  64.5611334  36.9753647
  64.9605417  63.8690710  36.7881608   7.6766282  37.9540825  39.1378498
   8.1537485  37.2074652  39.4999957   7.8867358  37.9424858  38.2040668
  65.6248140  44.2887735  47.8461552  65.6628847  43.3846807  47.5340652
  66.3378382  44.3530512  48.4815264  12.7288353  55.1542234  38.3956861
  13.1621110  54.4567919  37.9036522  12.4354172  55.7726812  37.7266216
  78.4925270  23.4910202  28.8811898  78.0490494  22.7380347  29.2717934
  79.1996622  23.6962748  29.4927979  68.4625292  40.1267576  41.9136143
  67.8983784  40.1445770  41.1405373  69.3388796  40.3097963  41.5748739
  15.4181802  40.3037357  44.1394424  15.0519955  39.4208121  44.0885782
  14.9943411  40.7803011  43.4256649   8.4743607  65.3406382  33.5642123
   8.0355006  65.8154154  32.8583670   8.2785702  64.4197607  33.3913326
  10.8322525  56.2869215  27.8712940  10.2561414  56.7873287  28.4491539
  10.2404177  55.7248878  27.3712134  71.8735790   7.2754723  53.7326765
  71.0082865   7.5558323  53.4345102  72.4569464   7.9918325  53.4821939
  69.4159651  50.6507254   6.5789926  69.8818254  51.2579584   6.0041195
  69.4631767  51.0564852   7.4446505  80.8576775  51.0634708  42.4132967
  81.6514397  50.5776978  42.1892405  80.9016228  51.8547869  41.8765306
   7.7833384  58.6911774  34.1770291   7.9018325  59.0257215  35.0660014
   7.0084393  59.1483974  33.8503575  64.7501707  47.4779606  39.7119498
  64.2007923  46.8934059  39.1897392  65.5623484  46.9889116  39.8439717
  71.8154526  53.6231279  12.7875650  71.5215826  54.5188236  12.6214290
  71.8484879  53.5549974  13.7417662  71.3383389  38.4388065  36.2688637
  70.5699778  38.9955688  36.1428857  71.3208532  37.8349113  35.5264115
  67.0037651  47.9253721  14.2091930  66.9925499  48.7795544  14.6410215
  67.9176760  47.6448202  14.2569673  78.1379175  51.7727757  42.5218439
  77.5208998  51.1643076  42.1152830  78.9754438  51.5826797  42.0991802
  77.1238422  46.7888451  13.0791891  76.8695641  47.4206877  12.4066186
  77.9096174  47.1646976  13.4760797  65.8829927  67.1420765  35.6215668
  66.5937042  66.5757036  35.9221458  66.0808277  67.9974747  36.0028720
  76.6820526  48.2600594  31.8612099  77.4500322  47.9799080  32.3591614
  76.1060619  48.6588097  32.5134850  62.1205044  70.2346611  52.5451612
  61.8403292  69.9163580  53.4033108  61.3265753  70.2133036  52.0108795
  64.4494390  61.8161583  21.2951446  64.3352842  60.9996605  20.8088064
  64.3918514  62.5015259  20.6294203  26.4730024   2.7927792  22.1762443
  27.1468163   2.3425472  21.6668367  26.9213319   3.0682740  22.9758286
  14.8668361  74.5161676  19.7599721  13.9508724  74.7653484  19.8830628
  14.9157727  73.6164427  20.0829673  10.9534621  46.4796925  11.2215447
  10.1226759  46.2913370  10.7850266  11.0003531  47.4354506  11.2451041
  14.7825694  42.2704554  38.8476062  15.4554319  42.3285913  38.1692934
  14.5888162  43.1807327  39.0714073  69.2701149  43.2941675  20.5893636
  69.7448683  43.0842543  19.7851348  69.8697281  43.8543844  21.0821700
  76.9177389  42.9293203  15.7896090  77.8306150  43.1169939  16.0079420
  76.7392826  42.0876789  16.2091553  66.7488003  49.7597265  38.0339575
  67.1117067  49.8770189  38.9118958  65.9591722  50.3007174  38.0269480
  78.6656332  16.4383006  44.2661715  78.6987495  16.0463047  43.3935499
  79.4642019  16.1327481  44.6964645  27.5222611  72.5519323  31.2306666
  28.3306980  72.3043346  30.7819414  27.1615958  73.2621717  30.6999016
  71.1389351  57.6876211  20.6787610  71.9777727  57.4441242  20.2872348
  70.9579659  58.5616636  20.3330159  75.5614758  64.9719572  34.6732211
  76.2988377  65.1454353  34.0880394  74.8313093  65.4570007  34.2887402
  77.2517633  67.1554708  13.0275357  76.7838764  67.6176214  13.7230444
  76.6731787  66.4307976  12.7902114  79.3835211  37.8881216  15.8157861
  79.2745781  36.9426680  15.7134187  79.9771309  38.1388474  15.1079738
   2.9545492  28.8374448  18.5538256   2.4777296  28.9492631  17.7314067
   3.3581918  27.9725766  18.4809780  47.9834795  12.3705280  65.8873463
  48.0688620  12.4006748  64.9344397  48.8536024  12.1202958  66.1979866
  13.0664074  57.4713421  15.9720302  13.5815525  56.8722153  15.4317498
  13.1949985  57.1574163  16.8670976  62.1802616  54.6090317  35.1349092
  62.3471594  54.6103382  34.1923738  62.8543091  54.0337133  35.4967070
  22.7563500  61.5237045  21.4428711  23.0787492  61.1699390  20.6139326
  22.9624462  62.4575186  21.4010739  80.6056499  73.7820101  34.4326854
  80.6284714  73.7705564  33.4758258  80.9199047  72.9152966  34.6901488
  38.2182431   4.9702868  40.7487917  38.6511469   4.8824656  41.5979767
  38.3880925   4.1387105  40.3062296  69.2701530  53.9529705  19.5994866
  68.5242653  53.3562469  19.5377874  68.9905024  54.6221399  20.2241802
  55.9830475  74.4997597  42.6811266  55.1500607  74.4868612  42.2097540
  55.8875322  75.2089262  43.3168840  54.6066380  46.4461136  14.1737807
  53.8347435  46.1086273  13.7193441  55.0773239  45.6633568  14.4600976
  63.1140423  55.2214670  44.9529505  62.5312948  55.0919199  44.2047167
  62.7626181  55.9916210  45.3997135  12.6556528  71.5337276  43.3902502
  13.3026457  72.1464396  43.0406523  13.1573176  70.7430363  43.5886765
   0.0258318  67.4046850  28.2212329  -0.0047986  67.3894453  27.2646451
   0.8358133  66.9450140  28.4422851   2.4296211  63.2379913  48.5694456
   1.8857868  63.9659309  48.8704109   2.7224737  62.8093433  49.3736362
  74.2217064  47.7512121  19.0766585  74.7938395  48.4141684  19.4631565
  74.7132254  47.4191904  18.3253908  19.0947461   5.3137177  35.9959340
  19.4921553   4.5217797  35.6338143  19.4410789   6.0240036  35.4557681
  80.6741333  51.8389940  38.4040856  80.5269241  50.9946680  37.9778528
  80.3104305  52.4814844  37.7948594  66.6272020  37.0483947  35.9262919
  66.6966152  36.9862509  36.8789482  66.3904381  37.9612613  35.7624364
   2.7434090  60.5665016  59.4787645   2.0139396  61.1749029  59.3606520
   2.9160622  60.2262545  58.6008978  80.7909679  20.4186583  23.7682962
  80.9278107  20.5113244  22.8254724  81.0262394  21.2732601  24.1296005
  78.7413406  34.5733142  43.9021826  77.8674412  34.9638557  43.8992405
  78.9401865  34.4242668  42.9778004  62.2820616  75.7848215  40.2058315
  61.7940950  76.6075706  40.1711321  61.6754198  75.1633453  40.6082964
  65.8738661  74.1697788  48.7327623  65.4048872  74.7361231  49.3455791
  65.7370043  73.2850599  49.0715408  68.2257175  57.5764942   1.9171117
  69.1172743  57.3270512   2.1602967  68.0931568  58.4279966   2.3337659
  63.0243540  66.8342113  19.0113199  62.0715284  66.8650055  18.9252853
  63.3200502  67.6927853  18.7085843   6.3169307  72.5977755  46.8985462
   6.5045708  73.4503746  47.2911024   7.0990002  72.3926735  46.3861656
   0.6886213  58.9016438  26.9731283   0.8117971  59.2182207  26.0782313
  -0.0516277  58.2977057  26.9137740  71.0773277  29.7604084  36.2939453
  70.3905392  29.1310048  36.0739470  70.6502676  30.3861618  36.8789935
   6.0255861  68.5522556  43.7464619   6.4492261  67.7262974  43.9800453
   6.5247858  68.8735199  42.9955864   7.2886997  70.8872223  25.8812213
   7.2965872  70.0424480  25.4311872   7.9774302  70.8131170  26.5418196
  66.4028740  51.9170332  21.2935758  67.2316980  51.4392710  21.3255334
  65.7743168  51.2833452  20.9477735  58.5250664  37.1928787  11.2778819
  59.4499493  36.9564700  11.3481343  58.5313606  38.0817342  10.9227347
  65.9454250  46.3492727  27.8813004  66.4789629  46.8981218  27.3065543
  66.0533476  45.4636145  27.5346208  26.8419194   3.9494875  52.2959089
  27.1885443   4.0520641  53.1822300  25.8913350   3.9626354  52.4074793
   7.3437303  15.2402222  33.7848854   7.1478838  16.1771524  33.7909913
   8.2157743  15.1752758  34.1741848  75.0511980  45.6483030  30.8715177
  74.1211414  45.8722734  30.9041739  75.5030537  46.4838982  30.9891367
  25.0344204   0.1490766  27.6966000  24.3207001   0.2112753  28.3313990
  25.7997727  -0.0900238  28.2193780  69.8952341  41.1782217  31.5744162
  70.2687120  40.2976131  31.5386963  69.3375969  41.2335396  30.7983923
   3.0119437  58.9409018  19.8818576   2.1643358  58.5304832  20.0531673
   3.4957683  58.8425875  20.7019067  59.7638655  52.9223251  25.1638889
  60.1523352  52.2648907  25.7410383  59.6896553  53.7056828  25.7089353
  20.7474637  75.5762100  28.7385798  19.8720169  75.6762028  28.3646441
  21.0590053  76.4728260  28.8620758  11.7386627  41.5294170   4.4333091
  12.6194322  41.2283182   4.6565127  11.8671274  42.4152994   4.0942800
   7.2130001  49.0586615  48.7488937   7.7604312  48.9222813  49.5221663
   7.3011732  49.9917698  48.5545588  66.2486029  71.0767746  39.4679284
  66.7218733  71.8801260  39.2514157  65.3247404  71.3220263  39.4173312
  35.7166100   3.3142951  28.6355233  34.7841692   3.4551448  28.4713674
  36.0647058   4.1895387  28.8058448  77.9845524  72.9114437  32.3205471
  78.7961483  72.4385262  32.1364617  77.2901344  72.2986984  32.0785618
  63.6333370  52.4055386  44.9843073  63.6341906  52.2107840  44.0471268
  63.5087729  53.3534050  45.0318480   9.2319947  40.2117157  43.9122105
   8.3269352  39.9828124  44.1236401   9.2433000  41.1688519  43.9125013
  18.8242078  25.8590841  12.1705937  19.4266510  25.8226418  12.9135382
  18.5450423  26.7739081  12.1332538   9.9116927  74.0377808  16.4299726
   9.3279487  74.2464590  17.1593070   9.7447342  74.7253323  15.7852793
  79.4018698  57.7265358  18.1410336  79.4844818  58.0198908  19.0484190
  80.0860977  58.2038736  17.6717567  76.1539984  34.0617466  33.9954591
  76.6593552  33.4267950  33.4878349  75.2411652  33.8629460  33.7870049
  62.5972605  52.9376221  18.8214600  62.7325821  53.4819603  19.5970964
  61.8956757  53.3764124  18.3403420  65.9203672  75.7686234  15.1219082
  65.6188631  75.4906988  14.2569911  66.0362482  74.9526787  15.6087720
  61.9989538  43.8219118  18.6011469  62.2139883  42.8961897  18.7153125
  62.3275518  44.0382814  17.7285409   4.0594906  25.2699780  37.9104304
   4.0119636  25.5957866  38.8092184   3.4110239  24.5667458  37.8759813
  75.7054901  34.1662693  27.0663404  74.8397589  33.8554955  26.8014622
  75.8062506  35.0057459  26.6176128  79.5400286  30.6654716   7.8982306
  80.0972652  30.1862550   7.2849852  79.0171432  31.2449431   7.3441237
   7.3343742  34.8987913  28.8007975   7.2918171  35.6443834  28.2020354
   6.4275891  34.6024036  28.8790679   5.2969331  40.8829308  19.4623673
   5.1195192  39.9686265  19.6832871   4.4342703  41.2974405  19.4473350
  74.4984579  69.9968672  44.2235708  74.9323940  69.1553259  44.0830660
  74.9987936  70.4097795  44.9274158  79.4131756  23.7575030   4.4654205
  78.6058664  24.1597366   4.1449708  79.2898750  22.8202629   4.3150479
  64.0904951  41.8134785  11.7905271  64.5462132  41.0962057  12.2310615
  63.5908461  42.2423458  12.4852598  58.8402462  20.3132939  16.8208110
  58.6721182  20.5147195  15.9002721  58.0764151  20.6565380  17.2844732
   8.9563608  69.4884872  33.1048179   9.4769090  69.6771145  33.8856387
   9.3724108  68.7169886  32.7202106  26.1729908  68.7734652  25.0008273
  26.3206482  67.8962231  25.3542089  26.4097834  69.3630600  25.7167435
  14.9816370  68.9962626  36.9696546  15.6084228  68.3245134  36.7010856
  14.9056768  68.8876629  37.9176378  62.7371073  75.8168650   7.6346713
  63.2266521  75.0781393   7.9964125  63.2604408  76.1084461   6.8881226
  62.4476051  33.9170814  36.9155407  61.8389368  34.4056273  36.3613987
  62.0575142  33.9524531  37.7889299  76.2417173  56.8503809  34.9282932
  76.9096231  57.3785305  35.3655457  75.4171324  57.1297312  35.3261137
   8.3187973  62.1521568  35.9889460   7.8993535  62.6768446  36.6708565
   8.3018291  61.2580395  36.3302660  72.0315742  56.6328335   9.4304204
  71.0898256  56.7877531   9.5035136  72.1082640  55.6908989   9.2783922
  13.0948007  22.2551894  30.9671593  13.7176180  22.1285677  31.6829085
  13.6052108  22.6802015  30.2778983  70.2978897  44.7641563  25.7773638
  70.3082085  45.6241846  25.3572679  69.3688679  44.5675182  25.8977127
  71.5682793  24.6457648  13.1301975  71.6052866  25.3452444  13.7825727
  70.7982922  24.1318107  13.3735144  81.4312363  39.3960547  23.8021421
  82.3137474  39.7348690  23.9524722  80.8862114  39.8556304  24.4408703
  21.3509178  12.0818222  21.0240459  21.3038445  11.9892442  21.9755960
  21.8808246  12.8668642  20.8857036  12.0125318  64.0841532  23.6582780
  11.7106199  63.2139301  23.9186525  12.1162450  64.5584488  24.4832134
  80.9416771  38.4601474  30.4817820  81.5629196  38.7081599  31.1664534
  80.0814342  38.6259103  30.8674479  73.8468456  44.8115492  11.6621661
  73.4391594  45.6037760  12.0120215  74.5560741  44.6166229  12.2747302
  75.5378437  53.0233288   7.6320040  75.2742290  52.3746920   6.9793111
  76.4292860  53.2662010   7.3818481   4.5183745  54.2607355  42.1328163
   4.0133590  54.5536184  42.8913784   5.2620131  54.8621416  42.0934677
  77.9823017  36.6675735  26.3118982  78.1377316  36.0078716  25.6359792
  78.8393593  36.8028998  26.7160869   3.0295777  45.2132845  37.9659867
   3.1980124  44.9540424  38.8718867   2.2883308  45.8161974  38.0232668
   2.8090075  44.0572929  15.9656763   1.9812234  44.3624926  15.5943811
   2.8693545  43.1410217  15.6954348  16.0588288  39.9482274  22.1024466
  16.4639056  39.0918612  22.2394967  15.1985478  39.8751521  22.5157380
  72.3845053  39.6691084  38.3432674  73.0171728  38.9543986  38.4150457
  71.9842339  39.5490694  37.4821019  76.9307613  37.0836568  41.7860365
  77.2889614  37.9399848  41.5523100  76.3131046  37.2674727  42.4938107
   8.7875813  34.2633581  11.1221743   8.5706979  34.2600965  10.1898742
   7.9402626  34.3098092  11.5650344   2.9643747  52.5465059  56.7639065
   3.7948057  52.6097918  57.2357225   3.1418896  51.9372797  56.0472727
  31.0426188   1.1109322  43.2804871  30.1990438   1.4763738  43.5470676
  30.8647370   0.6844673  42.4422073  66.0079479  49.1058064   7.4478310
  66.8827963  48.9532185   7.0906299  66.1407661  49.7568417   8.1368482
  68.1696463  48.1802702  27.5250626  67.7778006  48.9197493  27.9896712
  68.8234472  48.5779524  26.9500685  68.8459730  61.5540981  23.9963937
  67.9379177  61.2553692  23.9470625  68.9720583  61.7863560  24.9163890
  64.3740797  75.3151512  31.5479016  64.0443230  76.1616421  31.8494725
  65.1785803  75.5264664  31.0742307  64.1661739  59.4971895  26.8515110
  64.0875626  59.4071865  25.9018016  64.7047091  60.2789497  26.9742465
  52.7871895  33.3310342  18.4593940  53.4773731  33.9476848  18.2152140
  52.0354843  33.5894203  17.9260945  72.0867491  29.3488836  48.1829548
  72.4485731  28.9319992  48.9649534  71.7166376  28.6263323  47.6758385
  79.1082144  63.2781267  28.2815981  78.2431746  62.8715277  28.2305002
  79.0568590  64.0260410  27.6864338  25.0903821  33.6385655  35.3772497
  24.6070004  34.1038465  34.6945429  25.1291490  32.7333045  35.0686526
  75.8030415  46.1070108  22.6066232  76.2797594  46.2926435  21.7976022
  76.0575104  46.8122053  23.2017541   3.2303089  49.2063332  49.4201279
   2.7122054  48.9622116  48.6531830   3.3326793  48.3901930  49.9096775
  11.6619122  39.0128660  43.4884167  10.8436513  39.4994235  43.5881376
  11.5906298  38.2932639  44.1155767   0.6163042  52.3381901  24.1597700
   0.4027677  51.4408350  23.9040709   1.3471846  52.5816441  23.5916328
  79.7729588  70.1549339  18.9449382  79.9470854  71.0917902  18.8543367
  80.5150223  69.8210478  19.4490242   1.9857585  55.5377769  23.0702996
   2.9080164  55.6239939  22.8289723   1.7478774  54.6524477  22.7949047
  76.9379425  58.4450197  23.2372880  76.6372585  58.1913376  24.1099095
  77.0502567  59.3941879  23.2891989  13.8409603  12.2590482  49.1814089
  14.5754158  12.7200818  49.5866919  13.1064641  12.4085438  49.7767210
  76.3671017  74.1156864  36.7278194  76.4782524  74.5844984  35.9007239
  76.8137312  73.2801294  36.5914202  60.3469801  54.4136620  31.3810277
  61.1448050  54.0003967  31.7110562  59.7961903  54.5240307  32.1560645
  27.9772997  56.8374062  23.2159996  27.6615810  57.1801090  22.3798704
  27.5822186  55.9681320  23.2830882  12.3594034  75.8341837  20.4092073
  11.4113390  75.9653616  20.4232574  12.6569688  76.3194942  19.6396875
  10.1949155  61.8941975  22.4828577  10.7069814  61.1203909  22.2478104
   9.6997350  61.6275215  23.2573962  78.1235361  46.7865133  50.0058937
  78.6339712  46.1922407  49.4558668  78.3738327  46.5586090  50.9012365
  78.2899380  73.4395838  16.4613092  79.1326141  73.1015015  16.1582744
  78.5186529  74.1291428  17.0845461   4.9242446  76.6674471  27.9837465
   4.3110204  77.3818445  28.1564450   5.5356139  76.6933823  28.7198067
  49.4260836  52.9721308   3.8918662  49.1045570  53.0401707   2.9928535
  48.7502527  52.4733067   4.3508375   9.6636939   0.9609544  18.6152887
   9.5195419   1.2168497  19.5263147   9.5828241   1.7770302  18.1216156
   0.1214882  46.9565392  50.6384754  -0.1060839  47.1526766  49.7296476
   0.9304798  46.4484358  50.5785084  73.3296728  72.6133060   6.9463712
  72.9815578  72.3184204   6.1048907  73.2766724  73.5681915   6.9061166
  24.1597795   2.4499173   8.8298041  24.1722512   3.3731681   8.5774463
  24.5871305   1.9971034   8.1027812   1.9768982  51.2144852  13.9907193
   2.4329804  50.5501556  13.4741044   2.4530421  51.2410641  14.8206663
  30.3355479  72.1737719  46.2602663  30.6033468  72.5264931  47.1088552
  29.9652457  71.3149214  46.4639473  40.2986622   0.9649298  42.0810843
  41.0916328   1.1974496  42.5641632  40.5946732   0.3353544  41.4236355
  26.1718369   7.6498580  12.4183810  26.3388634   8.1012845  11.5910077
  27.0379257   7.3778296  12.7218962  23.8369393  15.7879257  14.9891484
  24.4658136  16.4818287  14.7910392  24.1131425  15.0514710  14.4436395
  46.9401693  66.4213800  38.7967920  46.0190248  66.2676048  39.0067577
  47.0700502  65.9847546  37.9549384  25.4633117   1.8659234  57.7862978
  25.4237390   2.6813287  57.2865152  25.4268694   1.1765679  57.1232033
  37.7675104   3.1468147  18.6443341  37.6218700   4.0901935  18.7154496
  38.7108088   3.0401742  18.7669921  52.1742916  48.5576057   5.1979053
  52.7238035  48.6391497   4.4184053  52.5118256  49.2213202   5.7993925
  52.3887491   6.8445039  13.2702029  51.9540358   7.2561288  14.0170765
  51.7633247   6.1895543  12.9601789   2.7644733  63.0989599  53.9803839
   2.9179519  63.4096909  54.8726416   3.5525215  63.3522177  53.4996843
  71.6217279  57.9633379  17.9519081  72.2191906  58.2047129  17.2440875
  71.3705158  58.7976217  18.3482623  47.0885086  27.1303225   9.0244323
  46.8827343  28.0651402   9.0264231  46.4167976  26.7360306   9.5808202
   9.3615162  18.6501813  18.1486094   9.3668360  17.7187979  17.9278660
   9.3400997  18.6694503  19.1053760  49.3636751  61.9259501  14.7609043
  48.9909554  62.4575996  14.0575802  48.6050129  61.5293455  15.1891184
  40.5019617  63.7978268  13.7269223  40.2446318  64.2501068  12.9235208
  40.7451868  62.9179382  13.4390438  59.2253447   2.6253340  25.0853515
  59.1615534   1.9929697  24.3696141  59.0477753   2.1129952  25.8741522
  46.5075731  43.1903410  14.3629026  46.2404919  42.9086971  13.4879303
  47.4322224  43.4193182  14.2689741  45.8566666  13.2151163   9.7083408
  45.6508207  13.3894455  10.6267464  45.3651285  13.8775826   9.2227930
  51.4167404   9.3904918   4.1996333  51.9509363   9.4227034   3.4060156
  51.7348480   8.6207646   4.6713954  40.3906107  72.2462034  16.0451746
  40.3044319  71.8410635  15.1822340  41.3318491  72.3832798  16.1524916
  54.9819183  11.7588520  35.3850889  54.2889071  12.2468436  34.9403095
  55.6843567  12.3975897  35.5068636   9.4694048   5.8288062   0.5981291
   9.4492710   6.3294160  -0.2174787   9.8296976   4.9779791   0.3481001
  35.4409313  58.6301327  19.4016695  34.8172784  59.2665386  19.0519953
  35.4577637  58.8035345  20.3428817  34.0833235  33.5447288  16.4252734
  34.7048140  34.0022993  16.9914985  34.5976043  33.2953072  15.6574619
  57.9023170  59.4719172  55.1873064  58.8299179  59.3726540  54.9729919
  57.6091242  58.5855627  55.3985929  47.3607635  11.6048646  11.2552810
  46.9025946  10.7650208  11.2864780  46.9363308  12.0829284  10.5428600
  16.5162027  65.0991726  29.7781610  16.1680126  64.4303370  30.3677821
  16.5506947  64.6702385  28.9231420  20.4468632  14.2958212  17.0488930
  20.0505257  13.5512662  17.5014269  21.2418985  14.4837189  17.5477350
   7.5168806  74.9493504  18.7976635   8.2718581  75.4940128  19.0203333
   7.0745164  75.4281521  18.0967414  70.3376341  14.7034395  20.8250570
  70.3858757  15.4022145  21.4774513  69.5598841  14.9121618  20.3075933
  72.4708605  63.6376810  59.4420910  73.3727598  63.8313389  59.1865396
  72.2617483  62.8235197  58.9842224  54.9456596   7.8911048  20.3922153
  54.6639347   7.0318872  20.7062364  55.9010696   7.8635162  20.4437876
  41.0874224   0.8777395  61.8365097  41.6694498   1.0594884  62.5743771
  40.9607887   1.7283347  61.4161730  42.6402521  65.9695721  33.2405686
  42.3578167  66.4569378  34.0144777  41.8344021  65.5920839  32.8879595
  72.3015785  21.9848323  29.5573330  71.4451027  22.2969627  29.8493171
  72.1122837  21.1763334  29.0811753   1.2363159  38.1806660  19.6208847
   1.9401099  38.4811854  20.1958585   0.7745028  37.5175881  20.1340032
  53.8718033  15.7575834   1.9208761  54.7315168  15.4158223   1.6752541
  53.9531517  16.7059135   1.8194713  66.7290163  38.2608652  31.3763046
  67.6472282  38.4057045  31.6046453  66.4770651  37.4852204  31.8774295
  72.6356268  10.8052087  12.0675194  73.3819294  10.3485799  12.4557936
  72.9939270  11.2303257  11.2883341  80.4747772  21.1883926  54.6752834
  79.6469402  21.5279508  55.0153255  80.2786064  20.9394574  53.7720776
  34.6056390  34.3611002   7.9031545  34.3800402  33.5421324   8.3443224
  35.1314402  34.8409295   8.5430986  51.3333130  35.3793263   8.8382387
  51.0050726  36.2636471   9.0009153  51.2216234  34.9250007   9.6733111
  46.8621778  72.5734425  27.8377342  46.5640688  72.4068832  28.7319517
  47.4841213  71.8685341  27.6573992  80.5824089  16.6554010  41.5658283
  81.2856674  17.3045933  41.5800190  80.9803104  15.8633125  41.9270754
  29.5845699  36.5838003  66.3088799  29.5337319  36.6661549  65.3565884
  30.1211262  35.8044410  66.4535856  66.2634611  11.0508382   5.5956715
  66.3446188  12.0038640   5.6329310  67.1166754  10.7498372   5.2831727
  46.7896700  19.8445868   8.3335918  46.7524052  19.2458367   7.5877082
  47.7249956  19.9790633   8.4862781  74.0684271  15.4249799  22.7177525
  73.1350851  15.6371331  22.7273750  74.1437578  14.7040963  22.0925450
   5.6120574  29.4350791  16.3420093   6.5017396  29.5554781  16.0100424
   5.1913476  30.2851987  16.2134337  67.2818613  11.1957216  19.2330790
  67.3133659  10.2457118  19.3458605  67.0636463  11.3201582  18.3094287
  79.8749733   9.7037572  28.1875873  79.1167212   9.9295223  27.6487756
  80.1131630   8.8199651  27.9075718  29.2225504  70.6092501  15.1893163
  29.7419620  69.8392439  14.9579489  29.7252774  71.3487339  14.8477590
  46.5250015   5.1068139  66.3241911  46.9841909   4.2954990  66.1070538
  45.7716608   5.1210117  65.7338476  55.3911591  64.6385241   6.1586380
  55.7257748  63.7875843   6.4417762  55.9812450  64.9054670   5.4538167
  29.5956230  62.6715088  27.9728365  29.5151901  62.9565907  27.0626235
  30.2298188  61.9551182  27.9442954  71.8702698  20.1013994  15.5444324
  72.8249598  20.1482987  15.5954206  71.6403913  19.3297350  16.0620439
  52.4696636  20.5083060  22.9824018  51.6522217  20.2821779  22.5386810
  53.1562948  20.2211809  22.3804641  17.4021280  40.4196119  66.3939047
  17.1465790  41.2164593  65.9291887  18.3590794  40.4268074  66.3733435
   2.4293719  14.5253193  24.8619962   2.0419650  14.7442782  25.7094669
   3.0804431  13.8529992  25.0628066   5.3529537  25.8261657  35.7416654
   4.5995712  25.4732132  35.2683020   5.2263612  25.5349040  36.6446447
  53.4278250  71.5730429  23.0825686  53.9973354  72.3209381  22.9021835
  52.9762983  71.8059874  23.8937974  66.7593288  13.1973243  21.0785127
  66.6987324  13.9509654  20.4914999  67.1494436  12.5069261  20.5424237
  70.7478905  40.8223820   3.3455494  70.8864594  41.6671181   2.9172382
  71.5795469  40.3605938   3.2391182  72.4752283  33.2646513   8.2176077
  72.6437235  34.1612554   8.5073322  71.9448280  32.8826666   8.9168900
   7.5236064  28.6059070  53.5332775   6.7353982  28.1534576  53.8336849
   8.0003929  27.9469442  53.0286264  10.5745041  54.2410755  62.3334312
  10.0449610  54.9091673  62.7687120   9.9782711  53.8354206  61.7040062
   8.6925459  25.5099177   5.1496649   9.0487891  24.6260118   5.0600374
   8.5202813  25.7909846   4.2510220  47.1353388  67.7413511  21.2990046
  46.2894917  68.1812954  21.3839841  47.3990536  67.9022598  20.3930283
  64.7380733  48.8640690  62.2888136  63.8671875  48.4777880  62.3814440
  64.5784283  49.8068094  62.2442484  48.5163116  73.5022593   9.2136461
  49.4216776  73.2381773   9.3773758  48.0459404  72.6784754   9.0857053
  15.6457222  74.5328045  60.9546947  15.3274977  74.3811131  61.8446159
  15.0526059  74.0273762  60.3988314  58.3671188  31.3610840  21.7436361
  58.4986258  32.1595168  21.2323260  58.8785839  31.5001321  22.5406933
   1.9816770  54.2546606  53.9839602   1.4384259  54.9332380  54.3847561
   1.9345650  53.5186815  54.5941639  24.5256639  42.1892643  64.4701147
  25.4793048  42.1085882  64.4530296  24.2879510  42.0277452  65.3831530
  73.3300638  20.3421211  25.0277591  72.8719282  20.0761890  25.8250213
  73.4649944  21.2840223  25.1319098  75.9698200  17.9267013  34.0279102
  75.1537657  17.6091981  33.6412930  75.7159042  18.2478178  34.8931503
  66.3044024  39.6423244  49.5307779  65.9689188  40.4341173  49.9511909
  66.5353346  39.0644526  50.2580786  59.0716124  24.9982166   2.7164465
  59.7474480  24.3458462   2.5323597  58.3948946  24.8339033   2.0597209
  70.3996277  20.8961010  13.3680582  70.8323431  20.8165359  14.2181528
  71.1114836  20.8390737  12.7306867  59.8164988   4.9858019  27.9910731
  60.1312637   4.3031731  27.3984742  59.5458603   4.5134017  28.7783623
  29.3836260  72.6526356  55.7497549  30.1109362  73.0143118  56.2561560
  29.7601271  71.8998241  55.2939510  72.8699732  30.6568575  21.8773270
  72.9862356  31.5940142  21.7209601  72.6311874  30.5961752  22.8022766
  77.7940178  13.8881004   6.6559160  78.7139750  14.1295052   6.5480506
  77.3682499  14.6929109   6.9512701  65.3738976  16.8827701   6.6012937
  66.1157846  16.2881994   6.7122948  65.1324654  16.7949605   5.6792146
  64.3047476  25.3873158   0.6413283  64.3578243  24.7230768  -0.0458393
  63.7166262  26.0534930   0.2855797  73.7988329  23.0753112   7.2532779
  72.9543638  22.7555251   7.5708389  74.0905094  23.6903119   7.9262781
  75.6865454  10.5190027  42.4191618  75.4799128  10.4505169  41.4870453
  75.7910347  11.4579690  42.5729656  70.5298471   2.1852046  36.7067981
  70.4105091   2.3923011  37.6336765  71.3764095   2.5713536  36.4821720
  70.1456594  33.9806151   2.3242994  69.9183846  33.2148623   2.8517509
  70.5707359  33.6183810   1.5469138  78.8668489  10.7313788  13.3570421
  78.4863424  11.0783970  14.1639030  79.7285938  10.4071248  13.6187482
  34.0327501   2.2964531  13.4483802  33.3755016   1.6603751  13.7306237
  33.5238004   3.0489290  13.1467485  10.2345419  53.6113358  65.6944895
   9.9539971  53.4421968  66.5938902  10.8973837  54.2971468  65.7753134
  70.5349064  19.9407232  23.0782127  70.3736162  19.2567027  23.7280846
  69.7416496  19.9541390  22.5426793  61.8476772   3.7311926  16.5967715
  62.0415688   4.2807657  15.8374250  62.5788784   3.1149414  16.6393864
  58.1965828  72.9143238  42.4504137  58.1848145  72.5233746  43.3240557
  57.4395037  73.4999466  42.4398613  47.2281313  30.2272344   0.3131525
  48.0433369  30.2653313   0.8133735  46.9055557  29.3362308   0.4483936
  67.6678944   4.9367583   6.7395866  67.9233074   4.1137663   6.3228357
  67.4396086   5.5136073   6.0106403  78.9991426  15.5992043  19.7271800
  78.0924940  15.3002632  19.6575475  79.2605972  15.3656936  20.6178808
  58.5431767   9.8153669  21.9472265  58.6034298  10.6710565  21.5224957
  57.7436781   9.8638791  22.4713230   3.4577265  30.2956009   8.7029672
   4.2702872  30.1897407   8.2082242   3.4240144  29.5289040   9.2750430
  57.7148533  15.2320981  26.2428784  58.2682753  15.2797878  25.4633427
  58.2002020  14.6704197  26.8471861  74.4806433  18.5303056  30.2057791
  74.3273878  18.2621717  29.2997718  74.1210461  17.8155541  30.7311845
  56.0810423  23.9254880  23.2242036  56.7314434  24.3418527  22.6586509
  56.1384535  22.9943180  23.0100656  68.7703276   6.5721643  17.6965868
  69.1275835   6.5197468  16.8101048  68.2557631   5.7710814  17.7952015
  65.3745890   5.2887261  32.1511340  66.1684561   4.7595325  32.2283459
  65.6905651   6.1918247  32.1227741   0.9094765  63.4526348  63.4336329
   1.3130663  63.5144615  62.5678825   0.0078699  63.7445354  63.2989883
  49.6398401  19.7542858   0.4314962  49.5895958  20.2944970   1.2200888
  49.9702120  20.3466201  -0.2439464  47.8503799  13.3386540   5.7409185
  48.7003660  13.7757146   5.7932508  47.3261738  13.7513864   6.4272785
  73.8401031  75.6378174  45.4345942  74.1395855  75.9696579  46.2810135
  73.0895996  75.0829077  45.6468344  56.2170267   5.6068569  13.8960302
  56.6730404   6.2834442  14.3965423  56.8152380   4.8596469  13.9030194
  67.8456783   3.3492213  11.9975686  67.0094109   3.3154297  11.5330839
  67.6651955   2.9436371  12.8456008  69.1968679  32.0801067   4.0187946
  68.2923460  32.1435809   4.3254519  69.7215843  32.0779061   4.8193568
  69.6243429   9.3651557   1.0154159  69.8508644   9.9966329   1.6981715
  68.7225628   9.5817280   0.7785118  79.4445562  13.6230040   0.1910232
  79.1097784  14.3258786  -0.3658634  79.0507078  13.7879848   1.0477017
  67.9724121   0.7919173  24.1770935  68.0375242   0.5532343  23.2524204
  67.0934200   1.1597520  24.2681885  16.3955355   0.1133002  22.1783710
  15.7574403   0.6241792  22.6764345  16.0058010   0.0258183  21.3084936
  72.5490475  27.9676938  27.2819161  72.9317760  27.6032591  28.0799985
  73.2635784  27.9527569  26.6451669  51.1048174  25.4437542   9.0658140
  51.3808298  26.2507200   9.5003867  51.8606663  25.1850629   8.5385555
  14.4341469  76.3121700  14.4196892  13.8275528  77.0384073  14.2752862
  14.1828442  75.9560347  15.2718902   2.1739361   7.9584330  22.6580191
   1.9089545   8.3980650  23.4659433   1.4598568   8.1331283  22.0449901
  73.8063622   5.2426624  22.8512406  74.5177698   5.4728103  22.2536111
  73.3910227   6.0787970  23.0624437  58.8535547  19.2813361  34.7103500
  59.2720461  19.6963668  35.4645681  58.1295300  19.8660207  34.4863772
  52.5140190  20.1243234   8.0967677  52.9787540  20.2744603   8.9199996
  52.7699375  19.2398596   7.8351116  20.9540987  73.0841208  23.5996914
  20.1211977  73.5542107  23.6387467  21.4573836  73.4267807  24.3382859
  34.5910740  13.4393346  24.1288328  34.7838616  14.2113090  24.6609259
  33.9702535  12.9349911  24.6546197  71.8497372  74.3301249  41.5934467
  71.4975834  73.8420820  40.8491135  72.7857876  74.1300392  41.5897846
  70.9841728   7.5288403  22.6039624  70.7977867   7.1804297  21.7321229
  70.2827740   7.1821749  23.1554103  17.1182847  46.0726833  63.8023996
  16.8457139  46.4371395  64.6444893  16.8899119  46.7482138  63.1638575
   0.6592456  52.3987150  18.1752980   1.5988272  52.4328423  17.9957056
   0.2806924  53.0611134  17.5972342  72.2464705  45.4643202  30.2266908
  71.7298794  45.0268793  29.5499277  71.8549919  46.3345718  30.3017688
  55.6869459  10.3903162  12.4991250  55.2129078  10.7254839  11.7380857
  55.5879402   9.4398785  12.4434602  66.1311913  28.2104492  32.6357579
  66.5841484  27.5404739  33.1478095  65.2042627  27.9840636  32.7117729
  65.4058790   3.7442973  41.2620211  66.0406017   3.9461505  41.9494867
  65.8999538   3.8313204  40.4468203  29.7568631  67.1866703   1.5734184
  29.5911622  68.1040239   1.7907496  29.0621614  66.7049170   2.0223461
  43.5447168   8.7486035  12.0283365  42.8037167   8.9949685  12.5819194
  43.3834028   9.1975373  11.1984754  75.6616211   9.2662722  25.3881216
  75.6712675   8.4219074  24.9373579  75.1148272   9.8259127  24.8367095
  68.2250357  14.5252311   3.6397311  69.1689873  14.5943153   3.7826234
  68.1337309  13.8549507   2.9625157  73.9950323  36.2168527  40.7696342
  73.0379772  36.2137961  40.7858181  74.2212057  36.8631411  40.1007652
  38.7203074  41.1525822   1.7730089  38.1195331  40.6054306   2.2789033
  38.2190919  41.4049435   0.9975535  43.0290127  10.1437747   4.9254841
  43.0775070  10.1920223   5.8802366  43.2902575  11.0152769   4.6280476
  38.8598013  26.1753416  20.1927900  38.8286638  26.3777852  19.2577600
  39.5516706  26.7400742  20.5372119  74.5243120  32.1484542  36.6433144
  73.9607239  32.5301528  35.9703279  74.8290300  32.8984094  37.1541452
  81.1085892  27.4919605  27.6011848  80.7691383  28.0095100  28.3313513
  80.8925343  28.0054426  26.8227959   3.2352141  20.0906038  46.8732548
   2.6596522  20.7418370  47.2743225   3.0378732  20.1401782  45.9379339
  12.8250253  50.3383112  41.3834524  12.6342916  51.2431431  41.1362123
  13.5536599  50.4070950  42.0003748  73.0755663  27.5141740  12.4891496
  73.3518648  28.3249378  12.9164124  72.2220182  27.3185706  12.8757036
  10.7990754  12.3765624  41.1563349  11.6007209  12.5077438  40.6499863
  11.0374677  11.7276824  41.8184185  23.3160233  30.8948755  20.4827905
  23.4472060  31.1403489  19.5669484  24.1231704  30.4422092  20.7274032
  19.6303773  66.8502760  49.1614723  19.8609209  67.6539612  48.6954594
  18.9808750  66.4261532  48.6006689   9.8050857  11.6597271  14.7434926
   9.1328090  11.1908019  15.2378464   9.3226528  12.1078610  14.0487504
  79.9799633  30.4377341  14.1109896  79.6824741  29.7251248  14.6766067
  80.8295441  30.1438427  13.7822342   0.4147984  24.3087840   7.9063886
   1.1546328  23.7261128   7.7350086   0.5789332  24.6523476   8.7845999
  68.7120438  35.3217626  34.8665619  69.2365026  34.7821283  35.4581404
  68.0411291  35.7101178  35.4280686  68.8858604   3.6933339  28.7786150
  68.7712431   2.7431494  28.7942410  69.1807842   3.8843960  27.8882504
  77.2064495  41.4665699   7.1767718  77.3806190  42.3846054   7.3843849
  77.4109936  40.9953737   7.9844654   3.4553510   3.4800437  24.8179317
   3.3148834   4.4106829  24.6435452   3.4051302   3.4046766  25.7708383
  53.2238245  11.1768007  21.6383147  52.9598808  12.0832086  21.7964005
  53.0686617  10.7332420  22.4722290  62.7769518   5.3183240  44.3621922
  61.8439150   5.5104363  44.2685509  63.1403494   5.4641312  43.4887409
  75.5171108  30.0063467  28.4378386  74.7996283  30.0240636  27.8044820
  75.3621769  29.2147350  28.9531827  71.4576387  18.1096494  20.6781149
  70.6045485  17.8617144  21.0344720  71.7073393  18.8889265  21.1747122
  64.4698191  67.7385187  40.9275484  64.1224003  67.5725746  40.0511980
  64.0274143  68.5378456  41.2131834  16.0800242  41.4143133  29.3393111
  15.4836798  41.0168695  28.7047696  15.6862164  42.2636557  29.5387292
   8.7223470  18.8590670  45.8900166   8.7146902  18.8894045  46.8467045
   7.9472059  19.3560088  45.6284142   2.5732726  22.8961563  59.7529125
   2.1717817  22.1773791  59.2646503   3.4987646  22.6587987  59.8108530
  82.0505238  45.8851957  39.0682530  81.6848087  45.6938648  38.2046127
  81.7113876  46.7536831  39.2849207  69.1694450  12.9472625  10.7855868
  69.7509241  13.7038887  10.8606279  68.3023596  13.2889819  11.0038149
  18.7018096  16.9013309  44.2185020  17.8856921  16.7366934  44.6908140
  19.1638601  16.0632932  44.2393684  61.3808489  20.4167080  23.3282781
  62.3066187  20.6591582  23.3484197  61.0022879  20.8532143  24.0914178
  70.4297829  50.3570843   2.4830984  70.7677412  50.2247000   1.5973838
  70.8894110  49.7070026   3.0144835  79.9621010  22.0794153  47.4303818
  79.7250652  22.1613503  48.3541441  79.6414185  22.8867126  47.0283079
  54.6097946  28.8011241   8.4613192  55.5447388  28.8477492   8.6611724
  54.5744562  28.6111164   7.5238335  62.5183582  25.5937886  10.8021212
  61.6122341  25.4950047  10.5098665  62.8715229  26.2950087  10.2545846
  64.9867535  31.4066887  30.2228475  65.0863647  30.5351067  29.8398924
  65.2888918  32.0046449  29.5391846  65.6177473   7.6487833  28.7274408
  64.7244740   7.3958689  28.9605141  66.1018038   6.8233514  28.7032938
  19.4072819  36.4931917  13.9084411  19.3838310  35.7327104  13.3276248
  19.1394949  36.1513996  14.7614944  64.9288464  27.4813223  16.2056637
  65.6582069  27.9003167  15.7488143  65.3426456  26.8247771  16.7659783
   9.3009239  61.5703869  16.8426120   9.5386964  61.2552786  15.9706008
  10.1329732  61.6250324  17.3126531  71.8095875  23.7834120  37.7010298
  71.9942617  23.1263256  38.3721185  71.4330244  23.2854462  36.9754505
   9.4436109  61.5671492  56.2985468   8.5238194  61.3285017  56.4137030
   9.4313133  62.2531176  55.6310654  21.1811066  57.1333838  63.3400345
  22.0028090  57.1804380  63.8287258  21.3702607  56.5444231  62.6095676
  77.7958822  33.7978077   8.2718867  78.2287264  34.4012642   7.6679695
  76.8968344  34.1211438   8.3302307  57.4272060  29.2187476  23.1929922
  57.7809095  29.9340057  22.6642847  57.7979660  28.4269118  22.8034186
   0.7052026  33.5363603   4.4280016   0.5006705  33.2183552   5.3073597
   1.6201983  33.8126040   4.4800082  23.2456350  65.4714680  60.9468079
  23.9421916  65.0280094  61.4309454  23.4554148  66.4022017  61.0239697
  73.4297991  50.5548716  27.7455950  73.8196754  51.2103653  27.1671844
  73.2260752  51.0346889  28.5484028  77.9969501  21.7001224  19.1341949
  77.6687241  21.6532755  18.2362509  78.1480312  20.7879496  19.3818772
  69.4430208  21.6323018  18.7168884  69.0307713  22.2774196  19.2914355
  70.3815222  21.7377067  18.8729012  69.1206837  30.9487915  31.6418409
  69.3867397  31.8483305  31.8323088  68.2864952  30.8437753  32.0993733
  21.3883471  29.5634270  33.9676046  21.6127467  28.6371160  34.0560770
  20.4523039  29.6029067  34.1638041  64.9506187  21.9929218  13.1658995
  65.6080055  22.0376921  12.4715889  64.1126728  22.0433617  12.7059674
  74.9128675   9.8990387   4.6785802  75.3349447  10.6053150   5.1677179
  73.9846373   9.9764276   4.8991039  69.4631720  46.4007664  14.1331100
  69.8940563  46.1990118  13.3025277  68.8813877  45.6566238  14.2880726
  59.8672295  38.5667634  13.6271286  59.7790146  38.5340714  14.5796943
  59.9793005  39.4964480  13.4287369  50.5500889  69.3900728  23.6353183
  50.0640440  69.9400425  23.0208874  50.1688337  68.5184336  23.5298347
  77.2838593  28.7711191  17.6126945  76.9835329  28.5449982  18.4929812
  76.5551186  28.5287285  17.0413685  74.9029207  52.6969290  26.2623835
  75.3582287  51.8581676  26.1888647  75.3883028  53.2845068  25.6832600
   8.9516240  21.9094133  15.3620958   8.0589479  21.9734931  15.7015884
   9.5081282  21.9710088  16.1384606   7.4461836  59.3551922  65.1151657
   6.7904389  59.9489021  64.7494602   7.6578140  59.7295380  65.9703302
  77.5616693   5.3740346  34.5446086  77.3955965   6.3165033  34.5647502
  76.6916132   4.9766850  34.5813704  67.3431492  20.2367711  20.0501418
  68.1191778  20.4215074  19.5211005  67.6134729  19.5263922  20.6319642
  78.5897636  18.0797422  26.8099236  78.2955456  18.7611246  26.2054515
  77.8927088  17.4240589  26.7893696  71.8018389  18.3606684  10.8005428
  72.4400997  18.3980608  10.0881803  71.2675190  19.1463900  10.6848800
  67.6887941  29.5440602  17.7677512  68.1637335  29.3731737  18.5810566
  66.8844032  29.9810696  18.0474150  10.7897413   2.7487475  27.5791383
  10.9907746   2.4897018  26.6798544  10.2493989   3.5334867  27.4872327
  80.2949333  38.6675525  27.9712486  80.5859566  38.6333871  28.8824964
  80.8204842  38.0023050  27.5268722  30.0378680  70.2174234  65.8997440
  29.5090199  69.9022722  65.1667833  30.5168605  70.9663534  65.5449104
  10.7116723  42.3517990  22.3122311  11.6089666  42.2904158  21.9846201
  10.4356384  41.4423990  22.4263883  61.4179420  38.3187175  26.9068480
  61.6765404  38.6525154  26.0478139  60.6703138  37.7486324  26.7271495
  74.0622950  45.0729370  38.9268208  73.6665487  44.2015457  38.9439011
  74.8478508  44.9898672  39.4674087  60.2660561  37.5944281  32.6726484
  59.5685530  37.0287490  32.3413944  60.9682798  37.5116563  32.0274615
  68.9333773  17.6209843  27.5239992  68.7679815  17.4390054  28.4490705
  68.1956387  17.2191250  27.0652151  59.4654703  50.6234980  18.2050574
  59.9687576  50.3226614  17.4484658  58.6024952  50.2249622  18.0924857
  56.9135761  32.3632121   2.3946068  57.7804995  32.0941830   2.0907994
  56.7371464  33.1780028   1.9242644  15.0026762  66.8117952  66.4194965
  15.2898967  65.9489870  66.7183352  15.7180607  67.3996782  66.6620827
  75.1815128  38.1894660  13.0825055  75.1985455  37.4180627  12.5160444
  74.7699642  37.8839469  13.8909113  77.5870609  11.6306603  37.3623133
  76.8095922  11.1579478  37.0651340  78.3200169  11.0699153  37.1081972
  78.3339643  44.7254324  26.1769700  78.3033419  44.0704918  26.8743563
  78.3997345  45.5622530  26.6370034  17.4077559  42.5913763  21.5629292
  17.3062170  41.6395807  21.5650010  17.4484861  42.8299189  22.4890327
  77.8838730  31.8531489  13.2861555  78.2437277  31.9838476  12.4088550
  78.4799910  31.2282300  13.6988974  81.4185047  22.0615625  16.3529944
  82.3109818  22.3938060  16.2564218  81.1449432  22.3586369  17.2208321
   9.1225541  15.2219439  10.6829274   9.7949350  15.7432818  11.1214960
   9.3101972  15.3250146   9.7499764  66.3522243   8.7384582   7.8907937
  66.6094923   9.6292186   7.6529020  67.1615839   8.3289933   8.1965870
  74.6157885  34.3986535  38.0577064  74.2779207  34.9188924  38.7866974
  74.3868732  34.9031258  37.2771072  63.7477970   7.4292964   8.5046202
  64.5589209   7.8720599   8.2550758  64.0271711   6.7380112   9.1048765
  20.9664053  68.7234529  66.4635285  21.0867161  67.7833636  66.3294024
  20.0328964  68.8210590  66.6513244  12.9417157  70.3148699  63.3038521
  13.8806164  70.3781509  63.1286621  12.8335857  70.7016993  64.1727066
  80.5401421  14.2869866   6.2013936  80.4621220  14.8314989   5.4180348
  81.1501980  13.5931730   5.9510303  75.1171064  22.6591921  23.0891848
  75.2064228  23.6120415  23.1074619  75.7304525  22.3483229  23.7550640
  78.8120651   8.4230018  48.8906097  79.3883276   7.6654983  48.9923048
  78.5918570   8.4330857  47.9591417   8.9408815  41.0221243  37.7207041
   9.2780352  41.7793179  38.1994700   9.6098912  40.3475809  37.8375435
  81.5748692  21.3005781  11.5162206  80.7057476  20.9039569  11.4565682
  81.4638329  22.0302486  12.1257162   3.7440532  41.8355083  39.3029308
   3.1615478  41.6416359  40.0373220   3.9570242  40.9785604  38.9334488
  14.6303439  30.1587749  24.8833108  14.6726441  31.0707903  25.1708388
  13.9127922  29.7804689  25.3914785  74.0259075  40.1993656  11.6038513
  74.4754887  39.5500517  12.1446848  74.4855118  40.1716900  10.7646668
  52.1550941  63.2621002  25.9003949  51.2872171  63.6509037  26.0092854
  52.0179367  62.3258495  26.0447955  13.8616645  50.7822514  60.9069157
  14.2421615  51.3413048  60.2294827  13.7503564  49.9321508  60.4812717
  77.7968502  29.1637659  36.9472742  78.6333084  29.5517612  37.2042346
  77.2307777  29.9138522  36.7651606  61.5012598  10.6419897   3.2035401
  62.4411869  10.6700742   3.0246997  61.1177874  11.2425196   2.5643659
  36.3203144  75.4897404  26.1358547  36.4888573  75.6354523  25.2049446
  36.9878364  74.8583412  26.4041567   3.9885774  21.6354442  11.3106942
   3.8008463  21.9996142  12.1757782   4.9334833  21.4825845  11.3150799
  51.7446756  12.8234398  27.4600554  52.4825382  13.4074855  27.6352167
  50.9758091  13.3927000  27.4919343  20.6932425  72.4734163  55.2645683
  21.1354828  73.2435846  55.6216288  20.1024890  72.8239965  54.5979834
  81.3751888   2.6236892  19.1899788  81.2301159   2.1937820  18.3471477
  80.6951427   3.2957232  19.2362571   7.1734560  20.3880668  33.6982536
   7.0598435  21.3108635  33.4707212   6.7570686  20.2997589  34.5556068
   2.6201808  10.0336480  15.2206111   3.2189113   9.4198734  15.6460929
   2.1700171   9.5090562  14.5585012  75.3628540  22.3368669  26.0961866
  76.2539673  22.6446056  25.9305120  75.4267120  21.8490124  26.9172549
  54.2220497  29.8983097  21.3749003  55.0165224  30.0090599  21.8971825
  53.5593367  29.6139526  22.0043302  73.8918447  15.4874253  34.2683887
  73.2434893  14.8887587  34.6391439  74.0972710  16.0903823  34.9828672
  80.1006985  22.3271728  33.7405634  79.2818213  21.9448733  34.0560293
  79.8838425  23.2416630  33.5591459  68.9395285  45.7220745  28.1241322
  69.7005892  45.4918051  27.5912237  68.7741470  46.6426039  27.9203916
  58.2029676  34.1683292  20.2793574  58.6057663  34.7099924  20.9580231
  58.7333488  34.3286228  19.4988227  18.0780852  58.3312464  21.9408464
  17.8154862  57.7275848  21.2459612  18.6316335  58.9765167  21.5010238
  15.4652476  37.0204544  32.9670882  15.4563594  37.5965285  32.2026968
  16.3810897  36.7574501  33.0581546  59.2993450  35.2022600  22.6338482
  58.4645081  34.8378468  22.9279351  59.8669291  35.1517820  23.4029555
  12.1777868   7.9724741  34.6503186  13.1057978   8.1079739  34.4588351
  11.9917536   7.0923507  34.3232012  18.8712204  36.3054633   1.6102190
  18.9084458  37.0384765   2.2246607  17.9548061  36.0292816   1.6220967
   7.4479389  32.7162790   8.1539923   7.2146153  33.6204028   8.3645946
   6.8959385  32.4949622   7.4039620  80.8285046  31.6233635  19.0319061
  81.7266655  31.5442371  19.3532705  80.6886196  32.5659657  18.9415514
  18.5927355  63.0808926  19.9878395  17.7570522  63.2130575  20.4354978
  19.1022277  62.5360537  20.5876732  79.3313980  74.8897171  13.0998909
  79.0151215  74.3703079  13.8390923  79.0727377  74.3882227  12.3266947
  78.7203693  37.1384025  33.7564015  78.1517124  37.6478386  34.3337560
  78.1819725  36.9616938  32.9849505  81.4320469  27.4587846   9.6186519
  81.9368267  28.0573702   9.0680885  81.0575104  26.8270159   9.0047938
  57.1904469  14.7846723  56.7443752  57.7849770  15.5258822  56.8600178
  57.4198103  14.1811419  57.4510431  59.5842171  42.5736570  10.6672597
  60.3834438  42.6401949  10.1447284  59.1691875  43.4318256  10.5804920
  16.7154169  33.1394410  24.0488982  16.8861294  33.2651734  24.9823213
  17.1278214  32.3010850  23.8407850   1.1478129  56.2308598  18.0843925
   1.6954426  56.4608717  17.3337746   1.7384687  55.7685995  18.6790955
  54.9951506  52.7483559   6.6752273  54.8036528  53.6708784   6.8440902
  55.8237553  52.7595377   6.1961412  59.6320963  41.7375469  16.9155288
  59.2161894  42.5814009  17.0920646  58.9029503  41.1216545  16.8430400
  45.8323336   4.0725943  52.3869038  45.9415436   4.9120021  51.9400263
  44.8914051   3.9012012  52.3480368  18.8572848  52.2888947  34.1104460
  18.6843109  51.4559031  34.5491242  18.2554221  52.9072618  34.5247078
  65.9010506  46.8539858  21.3065124  65.5191755  46.1480474  20.7849216
  66.8153477  46.8916607  21.0256791  68.1299114  45.6244469  43.6659050
  68.4487152  45.1175928  44.4126940  68.2434845  45.0418139  42.9149914
  25.0018597  59.4765759  15.9625733  24.1013288  59.7876835  15.8704650
  25.1035309  58.8277864  15.2661777  66.0077715  63.8926840  16.7402864
  66.5084887  63.1810856  16.3413692  66.6470242  64.3663073  17.2725165
  70.8881092  17.4728000  13.1466985  71.5957308  17.7898920  13.7079108
  71.0671234  17.8638172  12.2915435  73.4640408  12.5291467  10.0082886
  72.6348162  12.8015769   9.6153456  73.5556412  13.0838275  10.7829940
   1.0292382  44.6266460  20.8517504   0.9900152  43.8324547  21.3846254
   1.6216588  44.4041872  20.1335716   7.0215279  22.2608352  20.0833464
   7.4022663  21.4605379  19.7216916   6.6513646  22.7136302  19.3255961
   0.7912672  17.8808784  23.8718009   0.9732416  18.0208528  24.8010612
  -0.1091614  18.1841731  23.7557292  44.2704344  56.6988325   9.7763634
  43.7149048  56.6470528  10.5541408  44.6367550  55.8192682   9.6846884
  78.4859991  47.0698071  63.6114264  79.2273426  46.6164827  63.2100058
  78.0027723  47.4396038  62.8725243  16.6653466  32.2556114  64.7255754
  16.3122582  31.3731027  64.8384571  15.9463799  32.8352427  64.9772692
  12.7942550  54.6054220  60.8484030  12.5738549  55.3880310  60.3432512
  11.9753563  54.3596601  61.2787962   4.1194716  71.3751173  35.0917649
   4.4074729  70.6312132  35.6208158   4.8718736  71.9667244  35.0806975
  21.6757512  64.5095778  63.4283733  21.1718392  64.0514135  62.7557755
  22.5673699  64.1760206  63.3284473   1.2634318  40.5076885  60.5917168
   1.5711161  40.7716131  61.4588451   1.6511224  41.1478186  59.9949265
  17.0815670  47.4077320  47.8142405  17.0006692  46.6026640  47.3028231
  16.9924843  47.1235704  48.7239408   3.6292708  34.4332814  55.8966398
   2.8182399  34.0636444  56.2456799   3.9056984  33.8113928  55.2235317
  74.2911625  54.3983316  43.5626078  74.6601725  55.2146387  43.8998127
  74.9541616  53.7365294  43.7592793  33.5728526  56.0918570  22.1171880
  34.0494061  56.8712759  22.4029064  34.2306972  55.5594301  21.6699815
  68.3294153  64.6656513  45.7088852  68.0668974  65.5474806  45.4448843
  68.0005360  64.0988731  45.0111485  68.7963486   8.6545664   9.5930845
  69.2870378   9.4209284   9.2961913  68.7160587   8.7734568  10.5394721
  24.3608522  57.8873444   0.1601891  24.3758488  58.4014463   0.9674706
  25.0026655  58.3140469  -0.4074654  22.9835033  32.2185087  56.3974857
  22.1576548  32.3634100  56.8592358  23.6524034  32.5629377  56.9892359
  72.9800272  24.3337226  65.0072193  73.4106016  23.5654998  64.6321583
  73.5276937  25.0708961  64.7372866  43.3827066  57.0242405   1.8475653
  43.0671644  57.9081774   2.0354925  43.1793642  56.5242290   2.6380557
  59.7869253  14.7285008   0.3909993  59.2149687  15.0105393   1.1048286
  60.2829361  13.9960420   0.7566596  60.8009911  29.8866129  16.0872483
  60.3967762  30.1729250  16.9063115  61.7227125  29.7538018  16.3086486
  36.3589263  61.9847727   9.9294460  36.0036206  61.4654255   9.2081517
  37.3083687  61.9122171   9.8318440  10.8216977  36.2133646  64.1520929
  10.5488169  36.1715746  65.0686169  10.2243042  36.8458366  63.7529230
  11.8922567  54.2340660  48.0605745  11.1673498  54.3919897  47.4557590
  12.6746202  54.4764805  47.5652218  67.0988178  39.3958569  15.3544700
  67.3372746  38.8966584  14.5733356  66.3723707  38.9056706  15.7394660
  75.3893328   9.0085816  11.6413832  75.9048271   9.8145241  11.6105008
  75.9971762   8.3480686  11.9737709  10.0571167  63.1870270  53.0829620
  10.4567683  62.6818037  52.3749638  10.3328693  64.0888453  52.9189014
   8.6593044  47.9671478  50.6122732   8.3271003  47.2157478  51.1034679
   9.6113920  47.8755713  50.6493616  14.5385754  41.4212561  41.6517353
  15.1231349  40.7487583  41.3020658  14.6988559  42.1877289  41.1012268
  66.8291855  43.5701227  57.8243017  66.5143299  44.1643667  58.5054588
  67.7396250  43.3943796  58.0618858  11.3773024  45.6658792  49.9652815
  11.3642132  46.0701370  50.8328247  11.5223348  44.7354031  50.1367855
  68.0990219   5.0921315  14.4892859  67.8339434   5.7547671  13.8514149
  69.0097713   5.3057331  14.6921170   1.3836271  20.1667643   1.1372057
   0.7858685  20.6042719   1.7434277   1.2094502  19.2336798   1.2606816
  68.8623810   2.4989927  14.6531641  68.8119984   3.3775306  14.2765152
  69.7752619   2.2381572  14.5313334  31.3224912  63.5010958  49.7480059
  30.6118727  64.1288471  49.8790836  30.8865309  62.6496506  49.7131777
  18.1473291  65.4187346  47.2104025  18.4345460  65.7540369  46.3610983
  18.4415662  64.5079327  47.2202635  53.2770872  16.9634783   4.9411061
  53.0507517  17.8475440   4.6522596  53.6049318  16.5305507   4.1528666
  14.8035896   5.9875029   7.4885225  15.5671656   5.4216057   7.3747575
  14.6524096   5.9986383   8.4336430   1.1600339  62.7581120  35.7052159
   1.8520291  62.4039888  36.2637591   1.6129613  63.0334330  34.9081659
  79.5493507   1.3657585  14.5448005  78.5992575   1.3200349  14.4377196
  79.8952770   0.7911289  13.8618898  55.0126076   8.5360342  55.3529501
  55.2886200   8.1148404  56.1669827  55.1300001   7.8625089  54.6830177
  44.3382931  31.6286063  16.3537347  44.1496992  31.2381506  15.5003834
  44.9736786  31.0348248  16.7536592  75.6000853  59.8113680  63.2833576
  75.0654793  60.4543543  62.8175306  76.0930777  59.3656445  62.5944996
  14.9780011  70.9415531  55.2509308  14.9409306  70.2803612  55.9420776
  15.5481780  70.5591202  54.5839453  27.7275324  62.0149040  56.2080097
  27.0071173  62.3609447  56.7347813  28.4688163  61.9757032  56.8123198
   6.0580653  47.0876026  53.2141685   6.8375933  46.5326214  53.2379436
   5.3397393  46.5019894  53.4535408  14.6573055  51.3782597  43.4558964
  14.5153785  51.5552664  44.3858194  14.9806297  52.2063828  43.1010723
   6.9247550  45.8197880  61.6377258   7.1308690  46.1301327  60.7560062
   7.3542255  44.9664497  61.6977835  74.8288250  52.8491116  58.0211115
  74.6863556  52.4283218  57.1732473  74.0020561  53.2928848  58.2101917
  64.6696043  10.1307344   3.2919246  65.0507164   9.2588586   3.3959281
  64.7917366  10.5487525   4.1443184  72.4119854  54.1419649  57.8323174
  72.2789764  55.0561237  58.0830193  71.8417549  54.0162134  57.0738554
  70.6948805  51.3168478  61.3596964  69.9877214  51.9354725  61.1767769
  70.6337738  51.1547565  62.3010921  11.6174889  57.6012802  55.1837444
  11.7748284  58.4569883  55.5827999  10.7030702  57.4059963  55.3885221
  71.7435646  57.0447206  50.0316334  71.1841249  57.0830154  49.2558813
  71.2013817  57.4004316  50.7357216  34.9174547   0.3553725  53.1102276
  35.1025176  -0.5837538  53.1051826  34.8487782   0.5909306  52.1850109
  78.8816643  65.4310274  54.0344572  79.7109985  65.1475334  54.4192505
  78.9832401  65.2648306  53.0972815  77.8653097  54.1993093  51.6979170
  77.9182768  53.3062315  52.0382643  78.4130764  54.7142792  52.2903585
  60.1037025  31.8499923  23.8623762  60.2305031  31.0391521  24.3550158
  60.7823515  32.4391007  24.1919518  47.7955055   5.6365639  60.5883598
  47.7437592   6.4258027  61.1274862  48.6872578   5.3145939  60.7200480
  47.4631643   1.5072554  56.5292025  47.6626492   0.6740654  56.1023188
  48.0537128   2.1362218  56.1146164  11.2711620  64.4064236  65.0484228
  12.1114004  63.9481592  65.0333929  11.3893509  65.1022053  65.6950665
  18.8927531   2.2477408  52.4383974  18.7314582   2.4035783  51.5078449
  19.1874802   1.3380575  52.4813414   6.2569427  49.3488741  57.0093012
   5.7295394  49.6895838  57.7317953   6.4237839  48.4360743  57.2442293
  61.0706234  40.5829573   1.8998796  60.2771997  40.0955200   1.6782558
  61.7044544  40.3260756   1.2301750  29.5307398   3.8752729  51.3407373
  29.5432663   4.2534137  50.4614878  28.6015201   3.8156968  51.5626240
  13.4137964  34.6987438  61.3834095  12.7993798  35.4079819  61.1944532
  12.9378104  34.1224599  61.9813776  33.7344217   8.6195827  46.1547136
  33.8413048   9.2165500  45.4141474  34.6002078   8.5851413  46.5614843
   4.5281598  57.1744204  60.5716181   4.2502680  56.4529419  60.0072765
   4.6436873  57.9141712  59.9752474  80.8270931  48.4284210  64.9779510
  80.9857845  49.3187284  64.6642637  81.1003494  47.8666735  64.2526913
  60.9521389  25.5402350   6.6335732  61.2176085  25.2904272   7.5186449
  61.7664337  25.8029151   6.2044406  12.0060158  57.6931334  44.5357084
  12.2033393  57.4298573  43.6368275  12.8303874  58.0488443  44.8675394
  18.4201038  75.8834219  46.2787437  17.4667740  75.9603643  46.3171530
  18.6611986  75.4757357  47.1105433  18.3456171  41.7830610  48.5330582
  17.6860917  41.1016607  48.4028482  18.8557363  41.7805481  47.7231169
  29.7980595   0.9161044  60.1564121  29.7617483   1.2920047  61.0359669
  30.5822730   0.3672884  60.1626825  75.0185633   8.4232283   9.0802056
  75.8367968   8.1671923   8.6545652  75.2748060   8.6524665   9.9735260
   5.0020766   1.0937639  60.7599926   4.1632125   1.5412444  60.6490898
   5.6069720   1.7832413  61.0337734  18.1310463  70.5100441  50.0545692
  18.5764325  70.6913710  50.8822060  17.6273239  69.7137451  50.2230930
  66.7574120   8.7385792   0.8510801  66.9488859   8.5244888   1.7641713
  65.8094549   8.8695002   0.8294789  70.2033472  61.4607048  59.7322750
  70.8469868  60.7784319  59.5413351  69.4221401  61.1956215  59.2468071
  29.5212436   0.8039133  52.5787401  30.0208950   1.6175331  52.6465845
  29.1203713   0.6963909  53.4412766   8.0435407   3.2097900  63.6757040
   7.3479331   2.5664228  63.8115025   8.3014125   3.0942902  62.7611589
  10.0702226  75.9170485  61.1449766  10.5604410  75.8567047  61.9649029
   9.8534358  75.0102615  60.9282446  58.3636713  20.5132842   5.7132334
  58.1014061  20.9592748   6.5185535  58.6710596  21.2153864   5.1398265
   6.1248988  56.4517927  51.8558788   6.6220021  55.8675528  51.2833548
   5.3579104  55.9399319  52.1127033  74.3402767  12.3826599  21.6675329
  75.0714874  11.7958629  21.4745641  74.0887403  12.1647787  22.5650239
  11.7545247  69.3925810  45.2809048  11.0112417  69.6228409  45.8383465
  12.5170159  69.4699478  45.8543587  62.7986908  45.0136852  54.0120363
  63.2374811  44.6721077  54.7911501  61.8657160  44.9569750  54.2183590
  33.0403972  62.6459551  16.0735476  32.5293016  61.9100952  16.4104843
  32.4204230  63.3746529  16.0441446  50.3249168  34.9484825   3.2534477
  50.9942913  35.6273317   3.1678101  50.1462364  34.9054575   4.1928375
  60.1329184  60.3192186  57.3399162  60.2716017  61.2459660  57.1446276
  60.9596300  60.0294018  57.7256393  72.9178810  15.9600210  15.9754336
  72.5772047  16.6323495  16.5654719  73.5575581  15.4808795  16.5021849
  56.8157387  15.0802290   8.4099829  56.0215092  14.5786250   8.5939097
  57.4643517  14.4203746   8.1647742  72.3656654  60.0049734  38.7204552
  72.2459841  60.1719189  39.6553540  72.1245193  59.0854263  38.6085653
   9.4302362  38.5481882  54.2403793   9.3902963  39.5032883  54.2896080
   8.6440927  38.2516408  54.6989298  78.0509281  35.5709147  36.5382147
  78.0937004  34.8311877  35.9322381  78.8164568  36.1029506  36.3211131
  12.5706136  42.5724697  53.7611008  13.1308019  41.7974091  53.8023376
  13.1818879  43.3076143  53.7148237  12.4948442  59.2537642  58.7587118
  11.6225338  59.6252918  58.8901567  13.0450869  60.0059128  58.5402203
  13.4257615  47.1708679  63.9019346  13.8274992  46.5136003  64.4701195
  13.7009788  46.9245195  63.0188704  47.4107742  46.0085821   9.9909759
  46.4569902  46.0841656  10.0195086  47.7134514  46.8848133   9.7525746
  74.2581129  35.8847833  49.1233778  73.7563610  35.1679969  48.7351894
  73.5944510  36.4935517  49.4476986   9.8597437  34.3177485  35.2877569
   9.8560750  34.8982525  36.0488296   9.8973584  34.9088669  34.5358300
  55.6147385  35.6951976  14.4220555  55.1426554  35.8618879  13.6062217
  55.2571487  34.8664260  14.7406518  61.6489744  40.1004076  17.8890252
  60.9997702  40.7195950  17.5553048  62.4871016  40.4394865  17.5746930
  57.4456644  69.0997839  55.3028870  58.3443642  69.0736389  54.9744225
  57.1172667  69.9577522  55.0340509  13.6160922  68.8009596  47.1979952
  14.3539989  68.2335234  46.9749737  13.0795562  68.2743883  47.7905178
  80.5734539  44.4853973   2.0226488  80.3855705  45.4194975   1.9310443
  79.9280739  44.0551472   1.4617595  12.7820969  52.4504232  50.1370382
  12.2789299  52.9775000  49.5163584  12.9207730  51.6173315  49.6865320
  71.2002993  13.0003095  15.6768823  71.1520433  13.7456381  15.0782263
  70.4334450  13.0966449  16.2415874  75.3894377  68.4781790  53.0045414
  75.6477785  67.5680733  53.1501436  74.7362995  68.6530828  53.6820745
  61.5982866  75.1358318   5.0411153  60.9060144  75.6900311   5.4014635
  62.4030685  75.6335163   5.1855743   0.8548076  65.9760618  48.5321808
   0.6555389  66.4987135  49.3089390   0.7546860  66.5857553  47.8010988
  54.2402267  65.7452297   9.5690072  54.3301964  65.1509428  10.3139675
  54.7986031  65.3652668   8.8907152   8.4950119  55.8714199  45.8926296
   8.0850166  56.6345358  46.2998009   7.7641129  55.3742027  45.5254889
  27.3975587  16.6867924  54.7162437  27.7569294  16.0289848  54.1209507
  27.1460319  16.1921120  55.4961538  18.8784456  60.9343195  39.8869395
  18.9256418  59.9973869  39.6967840  19.6816981  61.1208296  40.3729773
  50.2263451  14.6228862  10.4707766  49.3865776  14.7343755  10.0251412
  50.5154991  13.7453163  10.2207935  50.4434586  44.6730852  17.3478878
  50.9182310  44.0155649  16.8394697  50.3744698  44.2943144  18.2242465
  19.8676908  51.6528130  63.0902386  19.0345037  51.9319439  62.7106142
  19.6517217  50.8646584  63.5886383   6.6087383  61.8043327  48.1692886
   6.0990602  61.3839579  47.4766541   7.3968852  62.1211386  47.7280474
  30.5424476  59.5668125  56.6060448  29.8926997  60.0918341  57.0733881
  31.1036086  60.2100849  56.1729956  69.7176600  15.1643217  14.4730127
  69.0846825  14.9267757  13.7954128  70.1682520  15.9320998  14.1212773
  66.3681889  16.6325712   3.7330529  66.9125366  17.4116170   3.6190200
  66.9766998  15.8995271   3.6403671  69.1480589  20.9008431   5.0001937
  68.3980656  21.4709067   4.8305780  69.9073362  21.4170885   4.7295958
  14.8687553  32.6503468  49.4181776  14.1444838  32.7132106  48.7955141
  15.6431270  32.8919315  48.9100266   6.6194767  32.9429007  50.5756474
   7.5161141  33.1411934  50.3055477   6.6967922  32.1407938  51.0922480
  36.1299086  24.9982882   0.2873538  36.9491434  24.6073318   0.5910660
  36.2784863  25.9420300   0.3465584  25.7908320  59.5754004  18.6607361
  25.0298119  60.0351524  18.3061790  26.0500598  58.9700794  17.9660261
  63.2812166  34.8414683  11.3348246  63.0937243  35.5576849  11.9415474
  62.5788879  34.8870897  10.6860662  66.4048338  33.4313774  17.8731084
  66.4147329  32.9704142  17.0342708  65.6874466  34.0599418  17.7925384
  60.5664015   4.2330202   8.2780886  59.8523855   4.5658079   7.7343351
  60.2390289   3.4012938   8.6205637  -0.0793231  71.3365841  57.2063017
   0.4268249  71.1267805  57.9911757   0.5412994  71.2297916  56.4854336
  54.3856239   1.8218628  66.8617916  55.1649761   2.1902563  66.4457083
  54.2356491   0.9963802  66.4010143  79.6283770  43.1771612  10.7653368
  78.9076519  42.6070738  10.4974043  80.2459717  43.1418324  10.0348794
  26.5919471  71.8804836  61.2298775  26.2656093  71.2478685  61.8698263
  27.2872066  71.4144516  60.7654858   9.4770610  67.0331287  62.9280424
   9.1644549  67.5442600  63.6745358   8.8632232  66.3013840  62.8649044
  67.4521255  52.6141548  32.4603796  68.3720207  52.8062057  32.6424384
  67.2345209  53.1712008  31.7129970  64.0874243  57.1316290  58.5142660
  64.5022392  57.3815966  57.6886320  64.7906065  57.1852875  59.1614819
   7.0480549  23.0169630  32.8773832   7.6150066  23.6453533  33.3245111
   6.2496513  23.5089111  32.6856256  15.1718199  28.3670926   6.3420022
  15.2033937  28.1290984   7.2686052  14.6885180  27.6523757   5.9274775
  68.6831951  43.8667536   7.5214070  69.3464422  43.7083197   6.8496680
  68.8120794  43.1619930   8.1561780  79.3830013  46.9202662   2.4653140
  79.2886209  47.5296640   1.7332199  78.6800766  47.1604347   3.0690083
  24.5550561   4.0152931  56.6027784  24.5445871   3.8774654  55.6556129
  24.0930629   4.8440123  56.7293406  73.4338474  29.2936897   1.9694547
  73.8325930  28.4621048   2.2257733  73.1137276  29.6687579   2.7898684
  33.4000897   9.2363954  40.5702209  33.1421971   9.5843947  39.7166276
  33.0865502   8.3320194  40.5648279  53.6005831  56.6538525  63.1747150
  54.0061092  56.6972494  64.0406799  52.7114630  56.9815969  63.3099174
  19.5200527  63.1023932  50.4604530  18.6229897  62.8564119  50.2346134
  19.4521129  64.0099764  50.7569504  46.4489317  14.0231264  63.4246635
  46.1224461  14.0510178  64.3240261  45.6768847  14.1909182  62.8842735
  73.5183907  61.1670971   6.7646396  73.7965298  61.3294363   5.8632416
  73.4549522  60.2140903   6.8277735  34.4200706   1.1571940  46.2536383
  34.8232579   1.4967042  47.0526409  34.9462891   0.3904113  46.0269880
  27.0417118  58.7282085  48.2197618  26.7105532  58.8043833  49.1146183
  27.6275849  57.9716635  48.2447767  62.8041506  26.0346198  18.7910569
  62.9797602  26.8847847  18.3878040  62.0011950  25.7302260  18.3681631
  19.5986021  55.8569050  56.5630102  19.8265243  56.2410879  55.7164335
  19.5071197  54.9209642  56.3844538  22.0205736  70.0651217  58.1044865
  21.5255523  70.2610874  58.8999653  22.8510284  69.7093439  58.4207153
  72.4337339  53.0021763  15.4178441  73.3107853  52.8213072  15.7559311
  71.8732166  52.3567486  15.8485126  68.0116081  39.2759585  24.1921210
  68.1465149  40.2038527  23.9996648  67.5693178  38.9321995  23.4159493
  56.9445419  10.1857793  15.0728214  56.7422390  10.1039708  14.1408277
  56.7502880  11.0997057  15.2807558  63.9858437   2.9640138   8.0911446
  64.2210579   2.5848722   7.2442919  64.5668983   3.7188262   8.1853157
   0.7848752  57.2705269  64.0339136   1.4050680  57.9602909  64.2701769
   0.3434322  57.6028061  63.2522774   0.9536920  41.1591148  16.9426858
   0.1336810  41.6175365  16.7592096   1.5889007  41.5569639  16.3473225
  67.1148300  58.0536175  19.0239704  67.6336813  57.2582722  18.9037824
  67.2761536  58.5667610  18.2322061  18.5354757  25.7152867  17.4154854
  18.2519555  25.8360362  16.5092480  17.7346134  25.4903698  17.8890514
  22.9167485  64.0652275  66.8791008  23.3129859  64.5888567  66.1826515
  22.5117922  63.3274174  66.4231586  25.0112653  30.8034325   4.2054296
  24.7344971  30.2363586   3.4856665  24.8013473  31.6884899   3.9073679
   0.5303548  13.0263209  26.9513178   0.5944629  13.9665091  26.7834854
   0.5425851  12.9519808  27.9055476  51.1374187  13.2805049  54.0909052
  51.5686035  12.4850082  54.4031525  51.3601208  13.3244145  53.1610107
  60.7352448  40.9974051   4.6176851  61.4234877  40.6923866   4.0264887
  59.9895048  41.1764622   4.0449366  67.5116777  38.8196421   7.9762095
  67.3730612  38.5574245   7.0661223  67.3688841  39.7661304   7.9771656
   5.4530132  38.4327745  10.1900983   6.0630131  38.8294315  10.8120275
   5.1335692  37.6479483  10.6353343   2.2897550  67.1653938  54.2012691
   2.7757704  66.9193125  54.9883270   2.9296932  67.0952749  53.4928942
  42.2303104   9.8196059  64.2324209  41.5419960  10.2885950  64.7041178
  41.9927359   9.9102271  63.3096075  66.7846203  50.9013224   9.5714074
  66.2692833  50.4264784  10.2234650  66.5071774  51.8127155   9.6642369
  11.6838706  73.0129004  63.6129856  11.7499053  73.9208078  63.3170414
  10.9399462  72.6562691  63.1275797  47.2129297  17.9255605  15.8310688
  46.8236828  17.0785773  16.0486388  46.7140532  18.2308698  15.0733495
   3.5694158  69.7051382  51.0010386   3.6581966  69.4085598  50.0952816
   2.6699036  69.4808865  51.2394094  69.0860271  63.9900541  63.3745480
  69.2365026  64.1179180  64.3111610  68.3933592  64.6134806  63.1559467
  38.9015460   1.3365594  58.9703417  39.5798779   1.0154783  59.5644808
  38.5390925   2.1039651  59.4129992  20.5917692  70.4014444  40.0924492
  20.9413457  71.2402964  40.3930473  20.4557467  70.5216122  39.1526151
   6.4616698  17.8793061  33.0924869   5.8770663  17.9598892  32.3388457
   6.7067039  18.7803566  33.3029604  14.1317904  59.3947840  45.5471897
  14.9672246  58.9602709  45.3754902  14.1437316  59.5738363  46.4874172
  81.3321877  35.0333977   2.4043009  81.8515205  34.4694066   2.9773992
  80.6060886  35.3292346   2.9533786  42.8420401   1.8589349  43.0847359
  43.5691547   2.1356076  43.6423922  43.0590868   2.2048348  42.2190094
   6.4588767  70.0188732  41.5939522   5.5513799  70.3194952  41.6420031
   6.7495614  70.2737093  40.7182884  21.7168856  25.1063681   6.5324128
  22.3579979  25.7911968   6.7227119  21.7709923  24.5128131   7.2814107
   2.1992907  75.1957321  58.3979368   2.9397205  75.7016802  58.0632544
   1.4288247  75.7084084  58.1534433  13.9727795  49.5627403  27.8613949
  13.1865382  49.0287876  27.7475977  13.9277136  49.8651552  28.7684488
  31.5396452   0.0596906  65.1622868  31.6137958   0.8491512  64.6261072
  32.2205329   0.1574143  65.8279228  10.2673745  18.9101923  10.5252922
   9.4318444  18.8123548  10.0686204  10.0288498  19.2311358  11.3949656
  45.0041342  21.7855072   7.2643399  45.6226015  21.2593484   7.7711862
  45.0911713  22.6687956   7.6227510   4.8235509  73.7034655  60.0621891
   5.2322710  73.2867527  60.8208275   5.2641308  74.5499611  59.9875927
  74.1137648  71.0504484  65.9017467  73.1883526  71.2200356  66.0780382
  74.2793989  70.1936102  66.2949753  68.0209351   5.6859970   3.7331945
  68.7240028   6.1909431   3.3245924  68.4696436   4.9663112   4.1769785
  31.0436392  68.2769775  61.2287521  31.3776159  67.4840927  61.6483021
  31.3026834  68.9864111  61.8168259  60.6175423  41.0340881   7.2031337
  60.9761810  41.2720728   6.3481659  59.6695280  41.0252142   7.0711422
  18.4602964  19.5065308  13.5561955  17.7114880  18.9264250  13.6940181
  19.1478443  19.1474998  14.1170931  22.1197772  64.6757364  46.0447884
  22.6536608  63.8848591  46.1203861  21.6731572  64.7447824  46.8885851
  56.1126232  43.2647228   9.1505432  55.4760933  43.8466406   8.7352955
  55.5894756  42.5345945   9.4813937   6.1630660  31.9107342   5.9508938
   5.4236943  31.8436813   5.3466874   6.7938370  31.2662387   5.6299800
   9.4043905  64.4401407  48.4095526   9.1221863  64.3854189  47.4965382
  10.3229940  64.1715908  48.3928204  81.7446041  45.9437323  58.4391928
  81.8003750  44.9885893  58.4105825  81.2798023  46.1806583  57.6366568
  42.7331257   5.1173913  60.6538677  41.9951725   5.4593819  61.1585474
  42.7771997   5.6814790  59.8817968  20.6835747  66.1060047  65.5142879
  21.1880159  65.5162477  64.9539709  19.8073828  66.1114120  65.1289415
  39.4012356  69.1741276  58.2354832  39.3818402  68.8079786  57.3512936
  40.0823545  68.6751938  58.6864471   5.5057067  16.5077853   8.3866292
   5.3623033  16.8634963   9.2636335   5.2991569  15.5767775   8.4690559
  21.9141769   1.9991016  58.5480833  22.7615452   1.8910086  58.9799547
  21.8281579   2.9441252  58.4225321  27.6323462  14.3483412  44.0415192
  28.1526423  13.8161814  44.6434546  27.5434947  13.8058925  43.2578802
  10.9546137   9.9476629  58.7700987  10.9517777  10.7798827  59.2429972
  10.1855075   9.9923635  58.2020235  20.4709435  12.4571109  64.0959597
  21.3707256  12.3523593  63.7866879  19.9733460  11.7972219  63.6130810
  68.0931425  37.6920438  28.6070275  67.9797935  37.9227877  27.6849961
  67.7268457  38.4350300  29.0866423  74.6111584  26.0861921   1.1955093
  75.0113964  26.5113187   0.4370184  74.9556828  25.1932955   1.1791062
   1.8887025  68.2133055  57.1695423   2.3751158  69.0096569  56.9563341
   0.9691470  68.4756565  57.1268702  11.9322109  36.5821075   2.0402971
  11.2435329  36.2699604   2.6272547  12.6734316  36.0007763   2.2102268
  53.3239317  25.0602341   7.5667959  54.0395069  25.4738426   7.0839757
  53.2379007  24.1928983   7.1711212  10.5792296  54.4215393  58.3480406
  10.1146638  55.1362276  58.7835121  10.6453574  54.7002554  57.4347067
  48.1085443   6.4657009  40.0227165  48.9851379   6.0812342  40.0237703
  48.2598162   7.4066758  39.9337578  10.5907798  56.9294691  47.8705645
  11.4681053  57.1515846  48.1823349  10.4178941  57.5606585  47.1720362
  55.1471615  11.2831330  56.4388704  55.1098490  10.4173326  56.0323906
  54.9753952  11.1199224  57.3662853  21.3106918  61.8154001  45.4710817
  21.0440803  60.9724712  45.1041746  20.5139923  62.1660519  45.8692551
  60.6006002  37.9645967   0.7436650  60.7770395  37.3459959   0.0348384
  61.0133314  37.5716686   1.5127501  77.5297546  33.4756327  18.8148916
  77.8287125  33.2048655  17.9468226  76.6436577  33.1203866  18.8846409
  68.0884218  31.8655086   9.8120636  67.8320312  31.3877678  10.6008995
  68.0512667  31.2120485   9.1136050   6.3728791  30.9944248  12.2840309
   6.4464641  30.0427842  12.3561192   5.4346764  31.1685085  12.3595405
  52.2442675  23.7767267  14.8963761  53.0153465  23.9449072  15.4380238
  52.1832418  22.8223157  14.8563266   5.7148266  67.2061634  59.4846582
   6.3788313  67.6234198  58.9358187   5.6560498  67.7673197  60.2578878
   1.2378129  12.2185040   8.0629581   2.0400965  11.7965984   8.3704782
   0.8360252  12.5752640   8.8551199  14.2942691   5.3494537  14.2134726
  14.9633455   5.3027970  13.5305440  13.5597217   4.8449355  13.8639939
  44.7904301   0.3093971  49.3407869  45.3833246   0.7306230  48.7184715
  45.1764011  -0.5532034  49.4930363  75.8431721  30.9385705  16.1067867
  76.7488194  31.1081290  16.3661718  75.3666258  30.8666539  16.9338083
  70.7136488  72.1949577  34.2336583  71.6325092  71.9287157  34.2013335
  70.4279184  71.9626713  35.1171947  57.1760035  76.6340399  34.0073180
  56.3804865  76.1333227  33.8265729  57.8893232  76.0155487  33.8496017
  74.7078848  16.2400699  13.8336897  74.7102928  17.1765101  13.6354327
  73.9999771  16.1315203  14.4687605  10.5813015  25.9624910   9.5515138
  10.8972538  26.8582439   9.6699625  10.3010094  25.6898808  10.4252148
  28.8531491  76.8852195  48.6581182  28.7106988  77.0825026  47.7323675
  29.6581504  77.3524620  48.8814688  62.9198122  37.4030113  17.2213733
  63.1856346  36.5860391  17.6434231  62.1638775  37.6995039  17.7282095
   3.0927533  41.5642548  14.3655753   3.6992356  40.8275366  14.4408178
   2.2801259  41.1736441  14.0441799   0.6029616  38.2083178  10.8655167
   0.2621676  38.8119674  10.2054417   0.3202001  37.3435807  10.5680132
   0.2464202   6.8493168   0.3934517   0.1463487   6.3488237  -0.4163180
   0.2394869   6.1884634   1.0858812  33.0552006  71.0767126  50.3420973
  32.1687031  70.7504225  50.1875353  33.3635497  71.3507414  49.4783497
   4.2221257  20.7676339   8.9126796   4.9052542  21.3930941   8.6710900
   3.9047316  21.0756373   9.7615767  69.8912430  35.4148865  11.0211885
  69.9844790  35.9275007  10.2182162  68.9459038  35.3561449  11.1594367
   0.5070525  58.4732151  61.3495398  -0.2570325  58.2337427  60.8250809
   0.8847998  59.2249918  60.8930683  67.1026039  30.6534028  12.2943532
  66.3258410  31.1139750  12.6117611  67.4900055  30.2675462  13.0800140
  56.0611057   2.7600813  55.8535910  55.5920601   2.2243035  55.2139282
  56.8366957   3.0684647  55.3849840  27.0806766  68.9258242  52.8178215
  26.7588234  68.1849480  52.3042631  27.9339910  69.1298532  52.4351168
  45.3385353  75.1094341  17.1494496  44.6049118  74.5293617  17.3532677
  45.1893091  75.3744888  16.2418652  55.0535297  50.4867983   2.0387788
  55.2610397  51.3281679   2.4453104  55.6000948  49.8542404   2.5050104
  19.4063687  59.9356174  58.9363956  19.4104409  59.0187073  58.6616325
  19.8644960  59.9358368  59.7768450  72.8035927  49.0074253   7.0028889
  71.8701887  48.7953520   6.9993877  73.0213499  49.1147709   7.9287893
  67.9605770  25.1203012  12.3119771  68.6288786  25.3609180  11.6703320
  68.4254360  24.5798731  12.9507864  68.5207558  18.0573881   7.3586887
  68.3914280  18.2484901   8.2876587  68.1067753  18.7905943   6.9034326
  43.9102411  61.9128513   5.1860434  44.5721197  61.8868589   5.8770353
  44.4013405  61.7629862   4.3782109  43.7534714   4.5475101  65.1745462
  43.6745834   5.1104158  64.4043875  43.6938763   5.1482272  65.9173918
  30.7247758  70.5332184  58.5094404  30.3170943  71.2886906  58.0860138
  31.4121413  70.9089756  59.0595007  48.5048246  20.3886652  47.4727631
  49.0543032  19.6520936  47.7406597  47.6736021  20.2442908  47.9249287
   5.4883480  54.9192667  65.1713228   6.3741028  54.7609520  64.8448181
   5.3972697  54.3237495  65.9151602  43.3391333  70.5954409  42.1854782
  43.0944157  71.3216972  41.6119814  42.9362440  70.8086634  43.0271721
  13.0036950  73.4202003  66.8015909  13.0860305  74.2114353  66.2692404
  12.2819388  73.6090422  67.4012899  17.8370893  43.6041975  10.8271754
  17.3625457  42.8421783  10.4949605  18.2646835  43.9752626  10.0553560
  31.4913893  11.3485599  55.1365662  31.4192581  10.6474555  54.4888926
  31.5380168  10.8938468  55.9775734  33.9656973  65.7952261  57.3532867
  33.5204840  66.1675692  56.5921211  34.8200035  66.2267685  57.3658991
   6.7255276  33.6749053   2.7462977   7.6633108  33.5434389   2.8859827
   6.5475929  34.5404673   3.1142300  38.7773776  66.8260479  62.1742249
  39.4498420  67.1745872  61.5889502  38.2192945  66.2934589  61.6075468
   9.1417259  33.2540178  38.8035202   8.4147561  32.6437306  38.9272070
   9.8516053  32.7137470  38.4565187  34.0606427  62.1351242  60.3151941
  34.9645829  61.8816471  60.5019379  33.8265681  61.6308022  59.5360279
  64.2201900  12.5697041  51.4188623  63.5448217  11.9506335  51.1416245
  64.3290329  12.4020827  52.3549652   9.5199430  74.4352007  34.8717833
  10.0044763  73.7368727  35.3120065   9.8178554  74.3972635  33.9629173
  20.2599025  58.9378929  54.3290472  20.7256961  58.4279442  54.9917841
  20.3538084  58.4277534  53.5245800   6.6538310  48.7047243   3.5346317
   6.3896984  48.1232500   2.8216416   5.8920729  48.7352991   4.1134429
  33.3709526  72.9534149  62.9992914  33.4762478  73.6701584  63.6249352
  33.9353776  73.1923962  62.2640753  38.6317039  76.2370872  55.6824970
  38.6966848  75.6755781  54.9100256  39.2955899  75.8969879  56.2823486
  76.6910458  31.1699605   6.2145203  76.0691118  31.2521672   5.4915595
  76.2139654  31.4932227   6.9788033   6.2651360  31.1334538   1.2843603
   6.6396207  31.5907359   2.0372792   6.9482052  30.5205321   1.0123754
  65.5336142  19.0819800  50.7257938  66.2916327  18.5514379  50.9710836
  65.8795834  19.9707437  50.6443262  57.8849316  70.9514809  44.7446489
  57.5430059  71.5641594  45.3957558  58.5120821  70.4136229  45.2279997
   6.7716134  26.3156128  49.7008467   6.0153991  26.5728712  50.2282810
   7.5159788  26.3875628  50.2983189   2.6967600  40.1058626  53.8329554
   2.0605743  40.7855129  54.0556002   2.2008279  39.2885661  53.8810587
  35.2059555  19.1121209  60.6366920  35.9998655  19.6256375  60.7858181
  35.4094458  18.2474852  60.9933805  58.2455301  63.6146641  31.9556808
  57.3322105  63.8264179  31.7627168  58.7197256  64.4303846  31.7945170
  76.9799900  43.8490820  44.2979908  77.8366804  44.0718222  44.6622801
  76.7689991  44.5804548  43.7176418  74.5985508  44.2519760  64.3339252
  75.3777075  44.3768787  64.8757267  74.0821457  45.0463009  64.4702959
   8.8793463   0.4094725  32.9592967   8.8365167   1.0051073  32.2112226
   7.9651427   0.2666279  33.2043695  55.9479380  71.3867331  54.8765612
  55.5275726  72.2076321  55.1327896  55.2215147  70.7798100  54.7345018
   2.0051464  11.5256631  59.9465847   1.1288550  11.8436837  59.7293091
   2.0754530  11.6455305  60.8936453  14.0791571  43.5423660   2.5567332
  14.5674324  42.9219627   2.0155126  14.4853580  43.4775925   3.4210464
  -0.2067983   9.0183181  58.7247324   0.6278297   8.9318538  59.1853333
  -0.0891495   9.7797465  58.1567383  25.2152133  54.9789572   1.6696192
  24.8679805  54.1005754   1.8248609  24.7599101  55.2810431   0.8836961
  81.6055347  43.2281733  58.7339401  82.2949558  42.7423668  58.2812595
  80.8256850  42.6811934  58.6397076  15.2236056  20.4965639  46.2227726
  14.2691588  20.5013943  46.1503887  15.4386020  19.6046197  46.4956188
   2.8160268   1.5637809  47.6895571   3.0720684   2.4774121  47.8158617
   2.8676185   1.1775254  48.5638428  80.8221817   4.9960667  52.0081902
  80.8536816   4.5399174  52.8491211  80.4601192   5.8573604  52.2163153
  78.4132814  24.4981241  42.4513865  78.7348270  25.3944612  42.5484467
  79.0165520  24.0934277  41.8280792  16.5871835  39.8291779  48.2557774
  16.5496337  38.8796020  48.1411934  15.8002186  40.1544809  47.8186321
  77.0257092  17.6190233  52.5610209  77.3519516  17.7029216  53.4569883
  77.5335789  18.2575333  52.0604229   3.7074372  18.0417693  48.6779881
   4.6380422  18.0649590  48.9008522   3.6333025  18.5960996  47.9011631
   2.6356614   7.6742846  57.8448296   3.2519683   8.3499140  58.1275320
   2.6375151   7.7330315  56.8894339  33.2775021  59.1840792   5.6999719
  34.0545082  59.7118807   5.5157959  33.6138749  58.4150887   6.1601198
   3.8710827  26.0705209  40.6413651   4.4918564  26.6706705  41.0545158
   3.6143336  25.4714799  41.3424110  44.3033314  21.9733524   3.0852354
  44.5365238  21.3338852   3.7582403  44.7136116  22.7877378   3.3762297
  25.0593901  62.5853634   2.9027873  24.4591045  61.8661356   3.0992529
  25.6308365  62.6364756   3.6689916   9.3318093  39.7459984  47.9668283
   9.7993904  39.9876165  47.1673155   9.9004287  39.1041207  48.3921480
  59.2072392  36.4952946  64.0048933  58.4008980  36.5252686  63.4899712
  59.5197105  37.4000144  64.0134811  74.5149422  30.7146358  41.0870028
  74.9744177  30.0110149  40.6287098  75.0287342  30.8583450  41.8817329
  42.5319719   4.6582222   0.2602288  42.8376627   5.0808185  -0.5423920
  42.8088093   5.2477413   0.9616990  69.7100067  39.0121579  63.2823944
  68.7958002  38.7596083  63.1532717  69.9276352  39.5288086  62.5065422
   6.0768116  46.2595558  48.3773136   5.8134639  45.8448029  49.1988134
   6.2843394  47.1618414  48.6203003  18.6357999  21.2380576  56.7968273
  19.0064394  22.0613837  56.4790297  19.0290296  20.5671525  56.2387133
   6.1803901  36.2200451  65.7930517   5.2488750  36.4263391  65.8702087
   6.4381003  35.9434843  66.6724443   7.3447663  39.4085288  45.8216047
   6.7565006  38.7939882  46.2603712   8.2230365  39.0966606  46.0398102
   1.0429117  23.3464551  43.8806534   1.5515526  22.9339743  44.5787764
   0.3159263  23.7732220  44.3340778  79.1056204  34.4101739  41.2946510
  79.3215847  34.8216057  40.4578018  78.1498003  34.3588209  41.2966967
  54.7879791  19.2411387   2.9849762  54.1910410  19.5941174   3.6447510
  54.2461395  19.1374254   2.2027449   6.5615839  31.0367680  52.6479244
   6.3431185  30.1167750  52.4992085   7.2621822  31.0142303  53.2997608
  79.5488071  48.3734035  46.0505629  78.9027023  47.9290819  45.5015993
  79.7113562  49.2044353  45.6042528  23.9668894  72.4207211  19.5527256
  23.6146140  72.8022909  20.3568006  24.6035290  73.0640602  19.2412245
  16.7771983  47.9071665  62.0044136  16.3823223  48.6962891  62.3753452
  16.0454273  47.4398804  61.6014433  23.4916949  66.6653728   2.3744710
  24.3742895  66.9638920   2.1550517  22.9941273  66.7726231   1.5638191
   8.0967915  59.5670748  36.7523694   7.4320781  59.2347383  37.3556423
   8.9202332  59.2060661  37.0807672   3.6880526  18.0267560  57.9523849
   4.3796438  18.6882222  57.9722881   2.8743419  18.5301137  57.9795456
  73.7719631  46.8112469  62.2308588  73.2192612  47.5895977  62.3010063
  73.3972883  46.1940098  62.8592443  67.0736313  45.5979013  54.0592146
  66.4235258  45.2918386  54.6916056  67.7955437  44.9741745  54.1369486
  19.1798663  49.0334797  61.1071682  18.5269737  48.3824492  61.3643026
  19.7020710  49.1738844  61.8969917  19.1023552  49.1339397  64.0776730
  19.7866523  48.7446976  64.6221542  18.2937574  48.7162876  64.3742704
  60.3963661  47.1447325  64.4059086  60.3046846  47.9889011  64.8477316
  59.4987106  46.8275261  64.3068123  50.7395458  71.5424728  14.1315436
  50.3670549  72.1671295  14.7538638  51.0702753  72.0855093  13.4160292
   9.5591581  45.2004623  43.1214094   8.6490786  45.4966307  43.1049347
   9.7337586  44.9130487  42.2252274  13.9342296  24.0609956  35.1876593
  14.1293979  24.8659945  34.7079539  12.9835105  23.9692521  35.1248193
  80.6620216  35.4965854  57.6550531  79.8580933  36.0110354  57.7276325
  80.9682274  35.4021931  58.5570288  68.7173557  13.7326002  53.8909197
  68.3228207  14.5597017  54.1674662  69.2481327  13.9634979  53.1285572
  10.9837687  36.0237384  61.0577583  10.6723332  36.8424463  61.4437103
  10.5170882  35.3397846  61.5380192  53.0308676  71.8037128   2.7168247
  53.9871788  71.7647123   2.7300403  52.7626514  71.3819361   3.5331556
  22.4446940  60.0202322  14.9580586  22.0880485  59.7969627  15.8178186
  22.1921086  60.9336948  14.8238349  23.7583160  32.8480506  49.2260170
  24.5260119  33.4113097  49.3240738  23.6687183  32.4153304  50.0751114
   0.1231524  54.7519398  65.0905275   0.7858945  54.6458530  65.7729864
   0.3722733  55.5577469  64.6379328  11.1636639  47.0084429  52.3249388
  11.8454838  47.2389555  52.9559803  10.3510618  47.3142576  52.7279091
  67.6478910  30.0102377  59.0924978  68.1602478  30.6798339  59.5456648
  66.8789577  30.4773593  58.7657404  74.5843267  37.8398967  38.5893536
  74.8605824  37.2585940  37.8808331  75.3670740  38.3486867  38.8006973
   7.5355983  60.1029110  59.9016666   7.1145904  59.4294548  59.3674040
   6.8095011  60.5643511  60.3212976   2.3549300  46.9465542  59.0706015
   2.3473148  47.9032755  59.0998936   1.5508521  46.7147493  58.6058903
   7.8072584  50.3725672  17.1234894   8.6938894  50.5682611  17.4265099
   7.7859712  49.4188213  17.0451331   6.7664331  50.0433207  37.3276758
   6.7228299  50.9783697  37.1276283   7.5260425  49.9567842  37.9036403
  77.3221159  18.7310243  41.7521715  76.7457628  18.3732200  42.4274683
  77.4212313  18.0190957  41.1200571  75.9251976  18.3308768  63.5426426
  76.0340309  18.2006323  64.4846773  76.7840910  18.6267042  63.2409477
  18.7801576  31.4362121  59.2995167  18.3429372  30.6902194  58.8889503
  18.1898713  32.1739459  59.1460800   2.8949007  38.2151532  28.4241629
   3.1174383  37.5251245  29.0491176   3.4887636  38.9342237  28.6397982
  75.0962782  36.3941717  30.4063940  75.9038115  36.1377811  30.8517957
  74.5865774  35.5858946  30.3505015  64.1248608  52.3148918  41.5407324
  63.7084436  51.5821600  41.0869312  64.6190071  51.9066620  42.2516441
  16.5182424  53.3591986  56.6699743  16.1412883  54.1524363  57.0506525
  17.2779047  53.6680984  56.1762905  25.0703549  45.6667614   1.4022672
  25.7835698  45.0442076   1.2609045  24.6441317  45.3646088   2.2043073
  13.9194167  12.8092456  43.4686470  14.0970421  11.9856298  43.9228916
  14.1940498  12.6489019  42.5658226   0.5681928  41.8992376  39.2464805
   0.7546060  42.0120430  38.3144093   0.8204789  42.7327490  39.6437836
   3.2311192  42.1564960  58.9468145   3.4146154  41.2172222  58.9649010
   3.9754349  42.5546741  59.3981218  14.2941713  51.0016108  33.6250114
  13.6972892  51.7215633  33.4209633  15.1673460  51.3878870  33.5572696
   0.6907339  44.0486193  52.3789692  -0.1122332  43.5278273  52.3947811
   1.0495959  43.9089298  51.5026474  67.5521755  56.8284988  40.8940125
  67.5892305  56.9594669  41.8414879  67.8947878  55.9447002  40.7608080
  23.4872150  46.4414549  61.3622522  23.8710141  47.1439934  60.8374977
  23.1157804  46.8868351  62.1237659  16.0258305  65.8747578  63.1824255
  16.1221242  64.9225283  63.1970358  15.2742267  66.0482121  63.7492037
   4.3949905  35.5405927  48.1350422   4.3480554  34.8296571  48.7742615
   3.4983754  35.6324863  47.8127527   6.1153162  63.8824606  30.7777143
   6.4412653  64.6758509  31.2025905   6.8769228  63.3043385  30.7333946
  14.1731369  39.9169803  13.6788201  14.3281412  39.9487424  12.7347875
  13.5263133  40.6042385  13.8385904  73.1530952  46.3976860  46.3796186
  74.0840530  46.3899946  46.6020823  73.0166340  47.2417498  45.9493065
  77.3542976  22.1928930  60.4285526  77.1113348  22.0383596  61.3414145
  78.0544519  21.5631056  60.2571440   5.4702067  34.2938876  57.8339291
   5.1936764  34.8278236  58.5786915   4.8376948  34.4978261  57.1450377
  16.1919272  13.8385963  56.9652414  15.9719372  12.9868853  57.3426342
  16.5317309  13.6339974  56.0940933  16.2623084  60.4125214  40.5839491
  15.5508447  60.7357693  40.0311756  17.0348334  60.4380751  40.0193405
   3.7794849  23.6174059  50.5438566   2.9455617  24.0190768  50.3000069
   3.5691822  23.0687690  51.2995052  48.0559158  71.6751051   3.3073944
  47.8320789  72.5839424   3.1070322  48.6521530  71.4148951   2.6052368
  22.1708131  25.0761032  56.2285662  22.3956394  24.8976016  57.1417046
  21.4520597  25.7063532  56.2776661  68.9651442  36.3908386  47.7459192
  68.1446123  36.7721701  47.4336004  68.7073231  35.8406186  48.4855270
  39.6852183  69.8583651  20.2440143  40.3621006  69.1857529  20.1688051
  39.2964387  69.9056339  19.3706036  17.5215530  27.5836658  53.4024286
  17.7680540  27.4448872  52.4879837  17.6636398  26.7343163  53.8203382
  69.7541332  63.4494448  47.5880051  69.7834158  62.5349617  47.3067713
  69.3233585  63.9081669  46.8667269   7.1742731  47.4107075  63.8954020
   7.1003699  47.2116947  62.9620409   7.9837048  46.9791698  64.1689539
  11.4121270  35.4212260  52.8096724  11.0159159  34.5526481  52.7402592
  10.6929576  36.0274267  52.6320553   9.7081685  43.5385466  48.3577204
  10.2972746  43.5093641  47.6038408   8.8405281  43.6783934  47.9784107
  66.2762022  42.1975183  54.0257215  67.1684694  42.5347424  54.1055393
  65.7868528  42.9098415  53.6141872  80.9274673  10.0887597  14.8834205
  80.9552479   9.2809421  15.3961492  81.2722015  10.7589614  15.4735219
   4.4980386  36.7896819  30.1914978   5.2554542  36.2657690  29.9305964
   4.4513258  36.6864228  31.1419630  41.0623837  73.3308601   4.3110090
  41.5387535  74.1565752   4.3976182  41.4024401  72.9415274   3.5053939
  64.7222233  24.1377378  57.6978254  63.7721920  24.2281199  57.7720308
  64.9352217  23.3860326  58.2508183  11.8012881  70.4165316  60.9280539
  12.1681309  70.1921225  61.7832136  12.2672904  69.8514795  60.3117800
  79.2331123  42.9013157  28.0986476  80.0866985  42.5203419  28.3047628
  79.1177654  43.5956335  28.7473750   6.6318047  52.0835924  58.8597393
   7.2045541  51.9323349  58.1078672   6.9341338  51.4603472  59.5203447
  57.6096582   3.5053059  14.3572581  58.0222130   3.5324067  15.2205646
  57.3764563   2.5854349  14.2320144   4.7779334  45.7500315  59.8115683
   4.7059259  46.5186405  60.3775072   4.0086973  45.7976627  59.2439079
  61.4084053   8.6283875  57.1330595  60.7511282   8.0237591  57.4775076
  60.9485245   9.1196996  56.4523554  18.6894715  70.9231567   8.8447142
  17.9837108  71.3338280   9.3441981  18.4793937  71.1153746   7.9308468
  11.7226028  35.6838250  43.5660362  12.2172499  34.8694086  43.6570501
  12.0041585  36.0422730  42.7243280   4.8380008  69.8462200  53.4404850
   5.4949987  70.5410290  53.3977747   4.3421972  69.9350452  52.6265287
  12.6642931  50.7599640  57.0011711  13.4745336  50.7772684  56.4918137
  12.5823760  51.6471291  57.3511076  19.1236019  34.3895483  66.4035320
  18.8265610  35.1752806  66.8624687  19.2347538  34.6703243  65.4952145
   4.2507264  68.5851669  30.0620127   4.8879483  69.1657066  29.6458888
   3.9991432  67.9716158  29.3717289  14.2721617  43.4936857  48.7628078
  13.5860181  44.1567850  48.6870527  13.8272762  42.6665068  48.5781956
  18.6104071  37.7208543  62.9187012  17.8791344  37.9927540  63.4732676
  18.3533108  37.9868340  62.0358753  60.6465721  64.0323973   7.1325105
  61.3698816  63.8726997   6.5262449  59.8589754  63.8620329   6.6158915
  46.3339615  68.6419916   7.4175936  45.5114985  68.6006689   6.9296628
  47.0011854  68.7990427   6.7494750  16.1232829  45.4883051  59.5241499
  16.3246250  44.9578667  60.2950764  16.9760025  45.7923985  59.2132950
   5.2518642  29.8540831  37.7390647   5.2345037  29.8206186  36.7826080
   4.5669144  29.2439294  38.0125427  78.0957031  30.2111149  63.4183073
  77.7650023  30.9966326  63.8539982  77.6421404  29.4880295  63.8515043
   7.0641017  14.1229212  49.9870968   7.2364187  13.2790625  49.5694351
   6.2013483  14.3795800  49.6614981  79.2389536  32.8506613  38.2429838
  78.3201027  32.7092719  38.4709120  79.2126369  33.2207608  37.3606205
  80.7987499  65.6235743   2.7004069  80.7960033  64.6708155   2.6083577
  81.7222214  65.8511162   2.8083506   5.2147293  39.7772861  55.0155020
   4.3687898  40.1311445  54.7409010   4.9934205  39.0744066  55.6264114
  75.7007360   6.4595592  48.8997412  75.5514240   7.0688832  48.1767845
  74.8242426   6.2553000  49.2257261   4.7287279  16.3719261  23.4201622
   5.0005066  17.2755730  23.2595634   4.3996975  16.0669065  22.5746250
   4.6404800  27.3830533  50.8808327   3.7702262  27.7778339  50.8257055
   4.5927164  26.8031573  51.6408777  12.1355462  27.6507902  11.7592776
  11.6435719  28.3396626  11.3124597  11.4672458  27.1283269  12.2027183
  33.1629014  63.9689159   0.8685903  32.9805803  64.8705769   1.1331749
  33.9074111  63.7063551   1.4098851   0.6404573  24.8597598  59.6695328
   1.2852561  24.1589713  59.7662926  -0.1231483  24.4309640  59.2831755
  -0.1140336  58.7248373  52.1203136   0.5541297  58.0586767  52.2816467
   0.2216979  59.2256737  51.3768864  79.8717690   5.8899069  58.6221600
  80.7077026   6.0214621  59.0695333  79.7081995   4.9493691  58.6919117
  16.9332552  44.6740246  45.9443951  17.6075494  44.0853739  46.2835932
  16.7014444  44.3064928  45.0915098  68.6735153  53.7275934  50.1909971
  68.1758738  52.9252481  50.0334501  68.5260296  53.9231110  51.1163378
   9.5652288  20.1800323  32.5113678  10.0921202  19.3953204  32.6625204
   8.7209904  19.9835467  32.9174304  73.6042118  57.9205132  28.7197399
  73.8052416  58.7336683  29.1829824  73.4905624  58.1864834  27.8072834
  67.6604176  65.8960819  59.8747730  66.7428541  65.7441759  60.1011133
  67.7579403  66.8480635  59.8961306   6.6634023  48.6829710  44.8683500
   6.5697038  47.7509212  44.6715212   6.9582480  48.7070560  45.7786894
  72.4096012  34.8672652  56.5030670  71.9193935  35.5986547  56.1275721
  72.7461481  35.2054095  57.3329020  40.6752920   2.0140120   4.1178393
  40.7685375   1.0656538   4.2081407  41.2626266   2.2449775   3.3981693
  23.4910393  63.2808781   7.1244651  23.6507201  62.9655313   8.0140102
  23.5783720  64.2319489   7.1882182   4.8180979  44.8237991  53.7576628
   4.5799124  44.1561937  53.1143856   5.4368424  44.3843651  54.3410063
   5.6090480  50.5242395  52.4398661   4.7185785  50.8434153  52.2934961
   5.5876333  49.6126604  52.1486759  67.8249836   0.4015499  21.5255022
  67.1518087   0.1764142  20.8833337  68.6475801   0.1396457  21.1120152
   9.4235939  20.5832314  58.9304972   8.8339788  19.8500609  59.1066980
  10.2013564  20.3968430  59.4564009  81.7342091  52.2411442  30.0494576
  81.2488937  51.6657257  29.4581962  81.0794544  52.5466967  30.6772828
  28.3543468  60.4663515  15.4589689  27.6892424  59.8181295  15.2272892
  27.8892112  61.1035252  16.0010862  28.4040785  46.1682796   9.8493469
  27.6725698  46.3374472  10.4430735  28.1462383  45.3809834   9.3698561
  76.2955284  34.3200135  41.1503077  76.1824131  35.2414560  40.9171104
  75.8567715  34.2314720  41.9964027  79.6554899  49.6109772  37.0541000
  79.1121721  50.1450109  36.4745784  79.2109108  48.7638807  37.0858932
  74.2722559  21.1443710  31.4260149  74.5580626  20.3331709  31.0058928
  73.5921097  21.4875150  30.8464575  54.6758270  12.9957473   9.2942899
  55.2569389  13.1590092  10.0371814  54.4137526  12.0803094   9.3918687
  22.4728799  32.5437164  41.6555691  21.6715193  32.9934955  41.9234371
  22.3550320  31.6434765  41.9587469  12.7390981  47.8912735  20.0758481
  13.2253242  48.1394958  20.8621049  13.3457732  47.3381042  19.5837271
  36.8968368  64.9282312   2.1337311  36.9946623  65.3349924   2.9946646
  36.2176085  65.4450750   1.7004257  67.0024776  36.4415979  41.3926220
  67.4268627  37.1682978  40.9365129  67.2489834  36.5580535  42.3101759
  14.6125674  46.4159250  52.0832682  13.9052474  46.8196917  51.5803766
  15.3101099  47.0714092  52.0843458  76.5763998  32.2454095  39.3442345
  75.7183027  32.1353054  38.9346290  76.4884520  33.0367994  39.8754597
  14.9904692  35.5912757  51.6573238  15.3648186  35.7869124  52.5162888
  15.6281805  35.0083923  51.2452555  10.8744574  48.5326004  56.0927868
  10.0725424  49.0507126  56.0240602  11.5657139  49.1790152  56.2361050
  -0.1194770  52.8655243  57.3081207   0.2526832  52.0927143  56.8832827
   0.3758800  52.9530478  58.1224871   7.5009811  33.6681461  53.5785341
   7.9144704  32.9524088  54.0612125   8.1498462  33.9202499  52.9215336
  37.5294375  62.0034122   2.9594332  38.1464672  62.3831320   3.5849887
  37.0163584  62.7485323   2.6467356  14.5400035  44.5737410  53.9991951
  15.3179967  44.5677185  54.5568037  14.8020649  45.0762844  53.2278299
  11.0650408  40.4863787  50.2149391  11.6779566  39.8144674  49.9164391
  10.7275593  40.8776855  49.4092035  19.7945833  54.3572617  18.7206364
  19.2259574  54.5705128  19.4605148  20.0293326  53.4391928  18.8557959
  75.6688690  68.9957714   8.6147606  76.4439297  68.9006472   8.0611664
  75.9233284  69.6411943   9.2742401   9.4868356  16.6100454  53.6630487
   8.9259779  15.8935964  53.3657742   9.7976577  16.3295603  54.5238304
  13.2421613  32.3156428  56.8958902  13.6026561  33.1552505  57.1810770
  12.9710948  31.8838048  57.7059937  23.7873960  44.1405582   3.0244473
  24.4507194  44.1626167   3.7141913  23.0288649  43.7252808   3.4348202
  34.0653872  74.3713760   1.4279105  33.5138750  75.0452089   1.8254238
  34.9361658  74.7669125   1.3888156   6.9281811  24.4850683  43.3290625
   6.5440303  23.6222148  43.1736851   7.8649950  24.3157387  43.4287548
  27.0899510  44.2079735  21.7444348  27.2109365  44.7010803  20.9329891
  27.9071236  44.3354988  22.2263050   2.1137705  70.9643412  30.2410936
   2.0337322  70.6042099  29.3578434   2.6114747  70.3048754  30.7244444
   3.3816877  21.4482903  52.5104809   3.2136419  20.9704542  51.6982841
   2.8919178  20.9669161  53.1772900   0.7190088  33.9536023  45.4542160
   1.4836650  33.4943748  45.8015490   0.3830013  34.4551682  46.1970186
  14.5468295  45.9095335  46.4037991  15.3973520  45.4779673  46.3225794
  13.9653742  45.2304649  46.7458630   0.4966393  29.9856997  46.4812040
   1.4399593  29.9753451  46.3191175   0.1657149  30.6906819  45.9246778
  78.4288168  19.4148469  57.9802608  77.6187086  19.2135739  58.4487104
  78.1674623  20.0466084  57.3103333  77.0453024   2.5175899  53.9914989
  76.5457439   3.2606372  53.6530447  77.5860357   2.8898841  54.6880865
   4.0334353  66.4543486  45.7844925   3.5270545  67.2649908  45.7328129
   4.8418730  66.7050362  46.2315035   0.5615209  55.6637144  25.3418136
   1.3209581  55.5549431  25.9142256   0.9355555  55.8412600  24.4787908
   3.4602845  15.4733181  20.1995921   2.7942428  15.8225906  20.7917309
   3.5219496  14.5460021  20.4287529  24.2353821  36.6133928  64.0607500
  23.4548378  36.1897683  63.7036467  23.8991666  37.3725247  64.5371008
  11.6709328  64.0663958  60.7847691  11.6140366  64.9547815  61.1365700
  11.9494498  63.5317373  61.5282726  33.7661242  58.8859987  55.7826519
  34.6766353  58.9877176  56.0598755  33.5656023  59.6975994  55.3164625
  58.9870644  20.3619552   1.4666051  58.8703966  19.7711205   2.2106048
  58.7659359  19.8305583   0.7017843   9.2849684  68.5890007  53.2880926
   8.7513453  68.8338614  52.5321054   8.6781043  68.1347990  53.8725996
  73.8737965  63.0919838  35.3016353  73.1875467  63.4543180  34.7412729
  74.6615124  63.5799646  35.0616217  17.2159743  55.3607082  52.1839619
  16.9087827  56.1977720  51.8358421  16.4882278  55.0417137  52.7176857
   1.6245857  44.5341587  29.0105152   2.5113508  44.8492718  28.8356352
   1.2248003  44.4511843  28.1447673   4.5180711  44.3796253  65.8300543
   3.6954713  44.3923903  65.3407717   4.6085647  45.2699518  66.1697054
  22.5013542  43.7390423  53.6913729  22.0862842  44.5021963  53.2894516
  21.7730379  43.2297707  54.0469408  14.5727646  37.4743605  43.9405775
  14.0818822  37.4235010  43.1204081  15.1608694  36.7195702  43.9149237
  79.1257143  11.8539643   8.8312858  79.5637369  11.3459480   8.1484336
  78.6388159  12.5262046   8.3545756  55.3937960  76.3116217   1.4430867
  56.0377741  75.7589912   1.0002254  55.7293653  77.2018719   1.3378175
  14.5989931   9.6919113  26.1927390  14.3312645  10.1737249  25.4101729
  14.1210318  10.1119494  26.9078302  76.8721724  56.0484123  44.5700216
  77.0755625  55.1141691  44.5246315  76.4805508  56.2498426  43.7201452
  30.0504875  51.2997246   5.0350642  29.8665690  50.7872677   4.2477915
  29.8372269  50.7111740   5.7591927  12.2029650  52.6861048  39.9002719
  12.3682916  53.6275244  39.9515295  11.3879836  52.6127434  39.4036293
  56.8321276  21.0689998   3.3700758  57.1838474  21.2555313   2.4995981
  56.2633371  20.3100252   3.2409891   6.6657442  57.8717375  48.4181595
   7.3311973  58.5269499  48.6281633   5.9826529  58.0049753  49.0753269
   7.6825607  36.8106699  42.1141005   8.4698653  37.0581961  42.5989866
   8.0114430  36.3470507  41.3439560  30.7537293  56.9794178  64.2591286
  30.9226775  57.8345013  64.6547604  31.1546564  56.3531923  64.8618984
  21.5528131  55.5737829  61.1364079  21.8834329  54.6845627  61.2637568
  20.7146025  55.4559422  60.6894732  75.1034212   1.4813015   0.8024794
  75.7577753   0.7837395   0.7642194  75.3091669   2.0439073   0.0559028
  80.6782532  47.3523474  48.1352663  80.5314350  47.9295826  47.3859453
  79.9570656  46.7240381  48.0985165  30.3854442  52.4650049  62.4208641
  31.3329172  52.3308325  62.4437523  30.2798557  53.4112644  62.3224640
  22.7731919  38.5319233  65.4705811  22.5873184  39.4685340  65.4039431
  21.9140172  38.1130290  65.4198170  13.9011502  39.6941638  62.5707102
  13.0299318  39.9908280  62.3076487  13.7388432  38.9109445  63.0964994
   8.0534041  50.8903217  51.1546803   7.2214490  50.9005356  51.6279411
   8.5380471  50.1592779  51.5379953  14.1528726  72.7971554  49.9800777
  13.8944554  73.1666899  50.8244085  15.1073229  72.7405834  50.0254250
   3.4935480  29.4007587  41.3516474   4.1522935  30.0843787  41.2293768
   3.3174676  29.0770602  40.4682207  71.9343615  15.1498008   9.1465902
  71.7085505  16.0014057   8.7724113  71.6072893  15.1887548  10.0453329
   8.8416183  74.8146391  50.9996176   9.6451128  74.4200802  51.3386631
   8.2462192  74.8271465  51.7490005   2.9612866  51.8906021  50.2131939
   2.6829466  51.6960287  51.1081219   3.0565587  51.0324192  49.8000669
   0.2053540  71.6106558  34.3373752   0.4442942  70.7381868  34.6503282
   1.0188563  71.9688082  33.9821672  19.8715305  50.6761217  54.2679644
  20.4670048  49.9312305  54.3502808  19.0657306  50.3870583  54.6961689
  15.6462598  62.2407150  45.1664639  16.2597644  61.5387678  44.9494171
  15.8657038  62.9470062  44.5588160   9.0601867  52.4264431  56.7051792
   8.6386263  53.1329250  56.2158918   9.8916960  52.8001785  56.9969702
  15.4755402  29.2230868  22.5435090  16.0812533  29.8734093  22.1879458
  15.2735662  29.5400000  23.4238529   5.9224671  43.3184481  60.3394222
   5.6470364  44.2323685  60.4109812   6.1297309  43.2026625  59.4121313
   8.9020181  72.5898075  45.5370378   9.1226238  72.3196507  44.6456480
   9.6202159  73.1666708  45.7971430  13.7112796  30.2772903  43.9380455
  13.6680079  30.8431888  43.1672525  14.3456280  29.6001863  43.7027550
  53.4506035  76.0753393   6.8599552  53.7209225  75.3480721   6.2993848
  54.2059183  76.2351656   7.4258089  32.7126908  71.6902304  60.0307751
  33.4738088  72.2392702  60.2191639  32.2224832  71.6702127  60.8526802
  28.1423163  66.6769934  46.9322872  27.6455951  67.4951792  46.9239330
  27.4955392  66.0020304  46.7265320  76.3648605  53.1124830  63.2122898
  77.1444559  52.6280165  62.9407167  76.4557838  53.9676428  62.7919674
  76.5823078  50.0226974  44.7743607  76.5940857  50.4241276  45.6432390
  75.9223270  50.5189133  44.2901897  76.7797661  69.6440506  41.2295294
  77.3499155  69.6628141  40.4608870  75.9278393  69.9335194  40.9029293
  53.4458256  27.0341492  10.6419647  53.6989021  27.4238420   9.8051107
  54.2267847  27.1146059  11.1895597  15.1412797  64.7954416  40.7311153
  14.4934976  64.1905642  40.3695393  15.9534192  64.5783377  40.2733755
  16.5585327  71.4604235  66.9840431  16.1158693  71.3624334  66.1410236
  17.4769092  71.6060066  66.7568398  76.9364405  31.1475086  35.4203057
  77.1290493  31.3414001  34.5029521  76.3142204  31.8258119  35.6829429
   6.5929681  38.1636095  63.7616539   6.4122659  37.5122404  64.4393682
   6.5123391  39.0051103  64.2106581  74.0507030  52.1644163  12.1162975
  73.4904194  52.1824455  12.8921759  74.6551943  52.8961515  12.2403288
  11.6749787  32.3912716  52.1321106  12.6228678  32.4957848  52.2146654
  11.5460801  31.4484477  52.0286512  16.9741857  61.9145584  50.1907206
  17.3814940  61.2443876  50.7395411  16.4295828  61.4224958  49.5762968
  11.0067296  51.5410471  52.2867441  10.5163074  52.2655058  51.8983173
  11.8053198  51.4839172  51.7621326   5.4519951  54.7201443  56.0854149
   5.3548449  53.8378477  55.7271576   6.2930423  55.0254679  55.7453394
  17.0497811  45.1444435  55.2965784  17.8166592  45.3678894  54.7691250
  17.2874105  44.3243933  55.7293320  33.1078196   3.6394295  61.6255331
  33.9114881   3.5265681  61.1179829  33.4041905   3.9731500  62.4723053
  71.5043879  59.2896461  58.9626265  71.1953592  58.4812164  59.3714952
  72.2634459  59.0212440  58.4449148   2.3345695  52.2269106  45.7269621
   2.0410670  51.6830778  46.4579439   3.1076974  51.7756557  45.3880310
  67.0944357  10.9445465  10.8311343  67.5398111  11.1285555  11.6581845
  66.7249775  10.0692403  10.9476340  15.6324625  52.0882845  59.2564440
  15.5451751  52.1744537  58.3071375  16.3758326  51.4972258  59.3759489
  50.0037146  76.4423895   1.0500919  50.2516174  76.5119934   0.1281752
  50.4809475  77.1516848   1.4806512   8.7241769  31.4792037  54.6176577
   8.8057750  30.6625342  55.1102257   9.4235945  32.0360708  54.9596262
  30.3580475  73.2318878  58.1919432  30.4191303  73.5052443  59.1072464
  31.2467408  73.3345842  57.8514910   1.4257285  40.9117222  41.6104841
   1.0864064  41.2246370  40.7719278   1.0323010  40.0460196  41.7200375
  13.0890858  48.8044739  58.9314604  13.0948901  48.0045748  58.4057617
  12.9579961  49.5079470  58.2957172   1.1785348  55.9434271  61.3780499
   1.8696645  55.7899141  62.0222616   1.1042948  56.8964815  61.3289309
  81.0095215  73.4545422  58.9468813  80.4897022  73.1142139  59.6750259
  81.1167240  72.7067471  58.3590508   8.9962482  42.9390860  44.9201775
   8.3061576  43.2627583  45.4991770   9.1699874  43.6675692  44.3240595
  18.3321345  40.4073000  57.5393677  19.2131436  40.7002497  57.3064852
  18.0629718  40.9952354  58.2451391   6.0689026  42.3732710  55.1470423
   6.0877138  41.4255524  55.0139666   5.2181429  42.5413990  55.5522251
  20.7150483  47.2223043  59.7755814  20.0277281  47.8133678  60.0829411
  21.3322115  47.7912951  59.3155909  12.3767650  44.9910164  47.4008799
  11.9674361  45.2911139  46.5893221  11.7819452  45.2833700  48.0914927
   2.0496844  20.2047873  39.6732044   1.1297684  20.4157090  39.5135236
   2.4768266  21.0556650  39.7721267  67.5276709   4.0102881  18.1874216
  67.7454042   4.0197909  19.1194808  67.8850269   3.1823486  17.8664124
  70.5615950  21.0289955   0.3018182  70.9448528  21.8374586   0.6420160
  69.6971321  21.2891340  -0.0164054  15.8635449  62.2456121  35.9258294
  15.2515221  62.1818161  35.1926231  16.4681864  62.9432964  35.6730986
  41.2362289  19.8290408  49.9557829  40.4528856  19.8189735  50.5057812
  41.1255264  19.0820360  49.3675995  21.2863898  59.4644547  65.1591349
  21.0575485  58.9424229  64.3901491  21.7533231  58.8557339  65.7315540
  15.0596702  63.9095306  50.3470421  15.7006574  63.2722902  50.0319338
  15.2533031  64.7073984  49.8549652  64.7037983   2.4024911   1.4655201
  63.8222837   2.2939053   1.8224236  64.5717955   2.4796803   0.5206131
  13.4618735  46.0630989  56.8231821  13.4800041  45.9717035  55.8705282
  14.3127024  45.7328415  57.1117163  79.4082451  60.2281904  60.4164600
  79.1312075  61.1183500  60.1994228  80.2446842  60.1205635  59.9636650
  18.0492055  50.2390575  28.0885887  18.4773624  50.0547981  28.9246273
  17.5428176  49.4490719  27.8995895  22.7572107  47.9197264  54.4198132
  22.9124904  48.6464548  53.8164949  23.0751109  48.2378197  55.2647924
   2.2215775  58.1917286  41.3775444   1.5315139  58.7481165  41.0163260
   1.9035371  57.9499483  42.2473860   7.4931663  31.7498231  20.1903129
   8.1724828  31.0962081  20.0243402   7.0828497  31.8907905  19.3370843
  10.4089856  44.5784187  53.7360954  10.8960891  45.2905464  53.3215618
  11.0842752  44.0111017  54.1080761  17.7221382  55.3437805  42.1719313
  17.1403182  54.7724771  41.6706038  17.2740805  55.4670525  43.0087614
  12.3394954  64.7086954  55.8093596  12.2758579  63.9353609  55.2488804
  12.7679336  65.3666782  55.2618837  42.5827932  67.6119995   1.8505037
  42.3485374  66.7438889   1.5222710  43.2839012  67.4483919   2.4813056
  32.9843640  73.1151247  56.9924068  33.2402039  73.3180141  57.8921890
  33.7221146  72.6172972  56.6400957  25.9350586  60.1596642  46.0448313
  26.2933898  59.6231174  46.7518997  25.4357171  59.5449734  45.5072021
  22.1311355  51.6969490  50.4452944  22.8734756  52.2919989  50.5505466
  22.0574665  51.5709066  49.4992924  14.4144094  53.9882946  36.6074848
  15.1269746  54.5917654  36.3969922  13.9913547  53.8146210  35.7665968
  37.6272297  22.5061083   3.5762930  37.4653292  21.6750765   3.1297463
  37.0560622  22.4807453   4.3439874  43.4312677  31.3183475   3.5266444
  43.2907248  30.4024982   3.7668538  44.2202759  31.5730572   4.0049958
  56.1149263  35.4355979   8.2802188  56.4114952  36.3293433   8.1084657
  56.2820530  34.9665260   7.4627393  15.0736356  60.5757713  61.2924194
  15.2528179  61.3936901  60.8285904  15.6458700  59.9327135  60.8737850
  70.0762224  41.8222237  49.6109247  70.5424976  42.2865582  48.9157915
  69.8189402  40.9906864  49.2126989  20.8822727  65.7190418  54.6995592
  20.9634542  66.5866852  54.3035269  21.4867353  65.1701975  54.1999292
  67.3409224  35.2161503   5.3117186  66.6683340  35.5531096   5.9035951
  67.0385408  34.3378115   5.0808030  13.5419524  60.5361557  66.1689377
  12.6035190  60.6925201  66.2743950  13.7089670  60.6984997  65.2405071
  75.9978247  20.7794452  44.7946548  76.3144350  21.2095118  45.5890322
  76.6857004  20.9352684  44.1475248   2.2511348  36.4568734  46.9351149
   1.9660707  37.3419905  47.1621323   2.5014281  36.5149593  46.0130453
  19.6719813  33.2755423  51.5794563  18.7160301  33.2274604  51.5706873
  19.9467778  32.4931049  52.0574856  48.5782099  73.9479971   1.4133759
  49.4244528  74.2579365   1.0908215  48.1927395  73.4860182   0.6689190
  28.3491540  46.1934280  62.9095268  28.8319826  46.9385815  63.2670832
  28.1507921  46.4468527  62.0080519   1.7281717  39.9274039  31.7054176
   1.8918218  40.0672913  30.7727432   2.3162737  40.5405283  32.1463776
   9.5886409  65.2130890  55.1253176   9.0980792  65.6066704  55.8468914
  10.4372168  64.9884653  55.5070162  38.7202907  56.4121675  11.9032192
  38.3841872  56.0169220  11.0988271  37.9836917  56.9169378  12.2479832
   1.5634005  29.6399689  53.8114548   1.2301602  28.7820530  54.0744400
   0.8008134  30.0931883  53.4518909  12.6927757  59.9523067  37.7203345
  13.0598831  60.7777166  37.4038458  11.7459428  60.0925636  37.7122521
  11.9852233  43.2740450  51.2925196  12.3054290  43.1460762  52.1854496
  12.0446885  42.4075127  50.8902550  22.8802061  50.3760529  65.3100395
  23.3600736  50.7166958  66.0649729  22.9685068  51.0568762  64.6430206
  74.2137289  30.3316164  63.9339781  74.2030716  30.8227825  63.1124735
  73.4892893  29.7114253  63.8516521   4.6739626   8.2855666  21.3431764
   3.7761208   8.1145608  21.6275501   5.2198750   7.8711236  22.0113444
   5.0667477  58.6265945  50.4681540   5.0782722  59.4437075  50.9665728
   5.2687371  57.9493666  51.1137533  57.1030903   0.9079593  62.1687984
  57.8593636   0.5229709  61.7260027  56.4320374   0.9673373  61.4888048
  10.3450716  52.0630360  59.8902225   9.9548256  51.4158630  59.3027639
  10.3749168  52.8682756  59.3735647  65.9930229  45.4635000  60.1575232
  65.3412962  45.3840685  60.8540678  65.7393837  46.2540865  59.6812153
  63.7338066  16.9391131   3.8922870  63.0167437  16.3679719   3.6168793
  64.4976234  16.6100490   3.4184381  29.7670984  68.7430859  52.0560741
  30.1703024  69.2661142  51.3631821  29.7005606  67.8635406  51.6843081
   3.6657372  63.9164734  31.9574428   3.0966398  63.3861065  31.3997030
   4.4893211  63.9743567  31.4730978   4.2813197  46.5387440  62.6405382
   4.5123753  47.4265480  62.3673201   5.0581408  46.0166454  62.4400568
   1.3928913  43.1828260  37.0106363   1.1399442  43.4601736  36.1301088
   2.0612618  43.8138247  37.2777534  11.0891342  40.8758450  46.3644838
  10.8753192  41.3540888  45.5633593  11.1488533  39.9611831  46.0887003
  20.7616901  41.5113449  56.9738293  20.9128475  42.4342966  57.1776533
  21.0746861  41.0410404  57.7465391  10.1718152  60.5771780  39.4574499
   9.3093932  60.8126450  39.7995210  10.5513859  61.4082766  39.1720963
   7.2064596  43.1417799  46.9665337   6.8945915  42.2687387  47.2048044
   6.4627790  43.7181044  47.1426535  22.2434163  40.2288246  55.0870562
  23.1665158  40.3631449  55.3017092  21.7827082  40.9137869  55.5716276
  75.1070404   5.5957693   2.0497078  74.9780130   4.7139186   2.3988828
  75.2051067   6.1484116   2.8250793  16.2565696  30.6454253  58.3627939
  16.0497510  30.6095386  59.2966938  15.6374514  30.0386620  57.9568863
  55.7846880  25.8130336   6.2089878  55.5483437  26.4081240   5.4974812
  56.5343428  25.3224945   5.8719134  25.2377844  26.6954994  37.9369879
  25.7956338  25.9291244  38.0700612  25.4267240  26.9767284  37.0417547
  74.5545816  69.6232367  39.7257781  74.6670485  70.3745985  39.1435075
  73.6270332  69.6396971  39.9615979  34.8293614  70.7555294   1.9481467
  34.0416431  71.1901188   1.6212463  34.7911406  69.8760223   1.5723220
  80.8649921  39.6758151  39.8554444  81.2799931  40.4712391  39.5218039
  81.5824795  39.0474892  39.9370480   9.3009710  35.8940315  39.6850157
  10.2153051  35.9265256  39.9663854   9.1032046  34.9596930  39.6207690
  21.8045855  72.6278639  41.5614462  22.3989868  72.0215225  42.0033360
  21.7991519  73.4064293  42.1182489  79.8364019  33.4658861  48.9559126
  80.7867336  33.5773754  48.9298439  79.5039082  34.0937662  48.3144712
   1.4600216  49.1807938  39.3583345   1.6208093  49.2369556  38.4164095
   0.5133418  49.0605402  39.4329619  48.3075714  19.1484964  20.1457477
  48.4138823  19.8451126  19.4979382  47.3623514  19.0038812  20.1890230
  20.1117492  44.1405964  57.5392389  19.7427845  44.0784550  56.6581964
  19.3492293  44.1572332  58.1176138  61.9715548  72.2512770  14.8728108
  61.7729807  71.3490677  14.6221662  62.1966648  72.1978045  15.8016264
  12.7143145  48.8151503  24.0410447  13.0506921  49.5616770  24.5368004
  13.4976268  48.3669043  23.7220955   6.6517889  71.7660570  61.2576628
   6.1186069  71.2527370  60.6506634   7.5145721  71.3526535  61.2271023
  78.2851934  22.9444170  49.3790674  78.0853653  22.8893065  50.3135538
  78.9723110  23.6081862  49.3198109   5.6106311  60.7046366  53.2571840
   6.3840592  60.2909231  52.8739309   5.4854023  61.5017271  52.7422094
  80.9132671  55.2612448  50.4469776  80.9346485  56.1380816  50.0636530
  80.0300217  54.9411440  50.2635717  29.1831541  75.5087948  50.8429146
  28.9071441  75.8418846  49.9890375  28.4365487  74.9961519  51.1527681
  77.9208899  62.6346397  36.4495325  78.8688850  62.6590347  36.5796733
  77.6591825  63.5549545  36.4217567  81.4149284  66.7859745  40.4178095
  80.4882431  66.7566347  40.6557465  81.8606472  67.0498991  41.2227392
   7.4718672  29.1100526  41.9622374   7.1367317  28.8790727  41.0958862
   7.1031386  28.4472895  42.5462055  39.0295792  70.3233910  60.9476805
  38.2565928  70.2742004  61.5100908  38.7220502  70.0261068  60.0913620
  76.7186403  50.6990385  22.6497483  77.1612930  51.5271187  22.4638081
  77.2324228  50.0420618  22.1800303   4.3704495  55.1517725  58.5969067
   4.8521405  55.0307035  57.7786446   3.4679192  54.9176645  58.3804274
  78.4608746   7.4153036   6.0278201  79.2296600   7.0811474   5.5657136
  77.7560186   6.8146724   5.7856351  77.7515078  67.2564602  56.4566135
  78.0365753  68.0387878  55.9844589  78.1892204  66.5330887  56.0078716
  49.3804407  73.3745193  23.2870555  48.8434792  73.8438845  22.6486158
  49.4799471  72.4971771  22.9174590  51.6411829  74.6411610  17.9400289
  52.4792671  74.3945980  18.3312464  51.4232635  75.4788160  18.3487785
   9.1020191  68.4046316  42.9169655   9.0529066  68.9988375  42.1681452
   8.6138308  67.6292992  42.6399040  20.7145572  58.0689621  49.9736691
  21.2373114  57.9604673  50.7681417  20.4646349  57.1782446  49.7279119
  18.0713069  64.2675209  32.7801967  17.2284591  63.9225912  32.4854708
  18.6454725  63.5022926  32.8116703  19.7972572  52.4705935  52.0758009
  19.9144661  51.7764711  52.7244043  20.6559467  52.5594950  51.6623020
  74.4953203  60.3611374  43.6426115  74.4031715  59.9605274  42.7781725
  74.9188900  61.2025404  43.4727383  10.1691341  17.8567350   1.9892824
   9.2391145  17.8108120   2.2110625  10.2039683  17.6419270   1.0571474
  16.5751362  71.8867064  47.9780531  16.8962896  71.5837383  48.8273525
  16.5974426  71.1079788  47.4218893  21.6859937  69.6488428  28.7640619
  21.6392732  69.9531555  29.6703982  22.5493908  69.9300146  28.4612107
  80.7074928  31.7459536   0.5629608  80.8485603  31.7944694   1.5084654
  81.1326885  30.9300399   0.2989129   8.8549906  76.9659901  37.4133539
   8.4336954  77.1640778  38.2497168   8.1365412  76.6963625  36.8411994
  22.7135038  59.4065285  42.9045200  22.2974658  58.5544252  42.7738905
  23.5583472  59.3310976  42.4609184  27.7734661  77.2279978  53.2133293
  28.5776329  77.6354885  53.5350370  27.8707361  76.3011026  53.4315968
  55.9121704  17.0156026   3.5256994  56.3359404  17.3766840   4.3043357
  55.4828358  17.7669132   3.1165123  21.4209771  67.5236273  38.5359192
  21.6768456  67.8669548  39.3920088  21.0391593  68.2743835  38.0811524
  37.0857549  66.1303425  53.0602360  36.7249537  66.8678761  53.5522747
  36.5064144  65.3973150  53.2682371  22.0884538  52.7905464  56.3374376
  22.6272297  52.3392057  55.6876326  22.7095342  53.0738688  57.0084238
  45.5100441   7.6951706  34.4701409  45.6610680   8.2876664  33.7336826
  44.5720959   7.7672106  34.6470523  55.4035282  14.0993702   4.4678026
  55.0079012  14.4209564   3.6576819  55.9604263  14.8191190   4.7645456
  33.4285426  63.7734461  52.5776100  33.6324286  62.9999161  52.0519495
  32.9497552  63.4307671  53.3323050  74.3675566  27.6908374   8.4539098
  73.6620283  28.3339453   8.5237283  75.0196409  28.1106353   7.8928488
  65.3348207  39.7693515  12.9116690  64.9367809  39.0360546  13.3807909
  65.6486177  39.3873048  12.0920324  33.8461256  22.0891142  50.1754904
  34.5662308  21.6786098  49.6967745  33.8030958  22.9793143  49.8263121
  13.2530701  57.5595522  47.7030182  13.3644795  56.8390608  47.0827675
  14.0734005  57.5803614  48.1958246  30.6407475  70.5392265  54.7957134
  30.4503059  69.6177673  54.9714231  31.3143706  70.5191898  54.1159630
  33.6651635  64.7743130  40.1479530  34.4218993  64.6192503  40.7132292
  33.7364483  64.1082239  39.4642329  41.9275236   2.0387726  36.1043382
  41.0983706   2.0527607  35.6262779  41.7958164   1.3874322  36.7932796
  74.8803806   4.6980602  33.9008975  74.0604448   5.1243186  34.1503811
  74.6151781   3.8331658  33.5880780  10.3276777  40.4586887  26.1249518
  10.1173532  41.3873768  26.0272813  11.1897385  40.3644419  25.7197356
  11.3494253  41.8441820  56.0487413  10.4180598  42.0483065  56.1331415
  11.4568555  41.5902233  55.1321173  24.1455197  73.2490826  53.0833244
  24.3148446  73.9641380  53.6967182  24.6548820  72.5143957  53.4254074
  76.9217062  63.1522751  56.2049055  76.6900921  62.5620270  55.4878330
  77.6595497  62.7239323  56.6388893  11.6824818  69.9948215  53.4871101
  10.8521819  69.5257187  53.4047747  12.1857834  69.7277069  52.7179718
  39.7764802   4.2969701  42.8201294  39.3491459   4.7286513  43.5599041
  39.7508693   3.3654770  43.0389833  49.4226027  19.3562090  58.6042976
  49.3447304  19.0144157  57.7135992  49.6479559  20.2791810  58.4878111
  26.3501120  58.8208008  50.8524132  27.2890806  58.7242889  51.0113287
  26.0666871  59.4807100  51.4852047  24.2903662  66.5838432  46.7949629
  23.8680959  67.2013140  47.3921633  23.5646677  66.1539888  46.3423872
   3.7258497  68.4720421  48.7097406   3.2032251  68.7367392  47.9527521
   3.7954473  67.5205612  48.6318445  31.4327741  38.1270909  63.5420418
  31.6407704  38.7198591  62.8198242  30.5809140  38.4264040  63.8598108
   3.1182000  68.8770866  43.1280327   3.2788354  69.3935156  42.3382664
   3.9904702  68.7016392  43.4810114   7.8128445  14.2117560   1.9844419
   8.7429875  14.0444553   2.1363506   7.7976370  14.9831533   1.4179200
  41.1815548  72.8870821  52.5009823  41.4593697  72.0913029  52.9546165
  40.3692722  72.6397228  52.0591211  48.5709238  72.5824308  63.2198763
  48.3149958  71.8251371  63.7464142  47.7618551  72.8597641  62.7900839
  44.7629976  25.6761861   1.6059025  44.9863005  24.9116421   2.1367872
  45.1104259  25.4742718   0.7371352  10.3631079  77.3774862  49.8669910
  10.6843185  77.0402002  49.0307522  10.1566350  76.5946198  50.3775978
  79.2843533  44.0040588  35.3412914  79.1101551  44.4626999  34.5193791
  79.7729111  43.2231855  35.0809407  12.0378828  55.5433846  65.5273104
  11.6094685  56.0663509  64.8496675  12.9620910  55.5393267  65.2782059
  33.7164164  54.8630428  36.9991136  33.5303330  55.8019781  37.0006299
  33.3622837  54.5500326  36.1667395  52.6531029   5.5578423  45.0277281
  53.4661674   5.0528038  45.0181198  52.9211140   6.4382535  45.2909327
  17.0774937  51.4178228  52.1293449  17.9399288  51.7230225  52.4109316
  16.9654107  51.7903042  51.2547445  24.3312144  67.8363323  61.4014864
  24.4141054  68.2561779  60.5452824  23.9928436  68.5247326  61.9740582
  33.2880092  59.4316387  43.4723234  33.4816408  58.6509228  43.9911890
  32.9438639  60.0610971  44.1060257  30.6896663  67.7572203  47.5743961
  31.2187409  67.6849365  46.7799854  30.0236392  67.0760489  47.4813986
  35.2900529  64.3995428  54.6154356  34.5752692  64.1216803  54.0426302
  34.9311900  64.3249464  55.4996777  64.6721363  30.4912138   2.1950568
  65.5615759  30.7650113   2.4190219  64.3636847  30.0218558   2.9701656
  10.2519357  59.4176197  45.6744432   9.5592988  59.1511488  45.0698996
  11.0556901  59.0743113  45.2841282  37.3601317  72.7353573  23.0023551
  37.6318455  73.4931803  22.4845695  38.0460024  72.0846558  22.8526855
  26.9110298  61.4750195  36.1433625  26.6838098  62.1821547  35.5395722
  27.5095797  61.8794012  36.7714119  19.4441807  62.8893995  53.4659672
  19.4724083  63.0120754  52.5170803  20.3617811  62.9105854  53.7376118
  21.8942308  66.3117695  50.4075670  21.0321164  66.4836216  50.0288105
  22.2590137  67.1804237  50.5766916  18.7997365  72.6584435  32.3076105
  18.5107052  73.5709476  32.3017335  18.0072391  72.1549797  32.1213245
  41.6059732  59.0132618  58.3850288  41.8463707  59.0904284  57.4617243
  41.3163280  59.8917103  58.6313391  12.1687806  32.2168732  14.0637529
  11.9482887  32.4924755  13.1740010  11.3744891  32.3856759  14.5705438
   1.1514125  50.3658724   4.0489012   0.6773315  49.5393705   4.1404134
   0.5933767  51.0113764   4.4826669  40.5549717   3.3117482  60.8677673
  39.6694875   3.6288637  60.6900358  41.1283159   3.9653006  60.4673004
  18.1451643  50.7013798  59.0352678  18.9563203  51.0364819  58.6532164
  18.4207332  50.2758598  59.8471928  32.2386289  73.2220936  38.4309506
  32.7305150  73.8692713  38.9363647  31.8194008  72.6706123  39.0915155
  31.8297672  57.2053671  55.8155298  32.4234772  57.8933096  55.5147409
  31.0675788  57.6768637  56.1516619   8.6185634  40.9894943  52.9981661
   8.2502443  41.8328428  52.7348518   8.8971680  40.5831051  52.1775198
   3.1504861  40.5622101   9.4152713   3.3130103  39.6192575   9.3896574
   3.9224982  40.9266424   9.8481899  58.5689640   9.1721255  62.9412794
  58.4396505   8.8462871  62.0505810  57.6958466   9.1513771  63.3330250
  55.2512407  17.4235654  50.9899950  55.8218765  18.0965626  51.3610458
  55.8058023  16.6456735  50.9301758  60.8473063  19.3591547  49.8281765
  61.7212343  19.0168941  49.6401834  60.9919071  20.2809787  50.0416327
  15.9820867  40.0038099  55.1432562  15.2628803  40.1533747  54.5295763
  15.6949162  40.4215622  55.9552002  16.5282035  55.9932375  36.6623688
  15.8381140  56.6403961  36.8079567  16.9586587  55.9066439  37.5129247
  11.7983592  63.6867762  47.7000904  12.4513447  63.1653357  48.1669331
  11.9957137  63.5447264  46.7742920  35.1296425  -0.0280328  39.9114728
  34.8813105   0.8698623  40.1313543  34.3410635  -0.5431701  40.0817919
  19.6142721  46.2720156  11.6036677  19.4267368  45.3569078  11.8125737
  20.2006292  46.5619135  12.3025072   7.3370117  50.2960634  61.0699844
   7.7460635  50.9612513  61.6235447   8.0170381  49.6332216  60.9498358
  47.8774738  67.2951746  58.8542366  47.1122313  67.7454567  59.2118406
  47.6938200  66.3656950  58.9904833  41.9035578  74.9911356  48.0199432
  42.3020220  75.6429338  47.4432087  42.5674009  74.3064785  48.1023407
  23.5022736  60.5081987  62.5916052  24.1554284  59.8350096  62.4007225
  23.7171102  60.8066177  63.4753609   5.5498105  50.0832176  42.4267435
   5.5951530  49.3374205  41.8284512   5.3062379  50.8226156  41.8697882
   7.7269512  40.0026274   0.9167566   7.8585011  40.4915190   0.1044081
   8.5179901  40.1713705   1.4286301  30.0570488  64.0187788  59.0588140
  30.2609706  64.9349642  58.8710499  30.2731204  63.9102650  59.9849749
  50.4697132  28.7146568   5.8838195  50.7393312  28.9095831   6.7813390
  50.0460148  27.8582859   5.9416503  12.9952562  62.6580763  54.2214441
  13.9205027  62.7297258  53.9868879  12.8380513  61.7164469  54.2911005
  31.1553502  59.2558861  65.8431339  30.3054214  59.6720743  65.9868050
  31.7748976  59.8039913  66.3247681  23.0403471  62.0111561  57.6868153
  22.2249293  61.7693138  57.2476816  23.6578512  61.3220453  57.4417782
  73.3629084  50.0348997   1.2219650  73.0583477  49.9772501   0.3163426
  74.3059683  50.1814938   1.1486360  15.1430297  76.1117125  44.0808201
  15.2379572  75.4446173  44.7606754  15.9754372  76.0926056  43.6086273
  18.4811461  55.8824921  60.6208229  17.6435542  56.3082457  60.8035898
  18.2421982  55.0367785  60.2414703  13.0429351  65.4029322  43.5748243
  13.9853454  65.5551100  43.5045624  12.9642630  64.6597242  44.1728878
  45.7127666   5.8214229  47.3444748  44.7882080   5.5804336  47.2865963
  46.1531401   5.2297997  46.7343187   7.5822991  68.9154768  58.2659054
   7.8778547  68.7622881  57.3684597   8.1668919  68.3825445  58.8048553
  13.2174945  15.8133137   6.5418023  12.8156698  16.2994671   7.2618192
  12.6005793  15.1050687   6.3573110  37.0663595  65.2381563  60.7872581
  37.3021460  65.0760651  59.8738241  36.1119103  65.3102207  60.7790852
  66.1162901  61.0652161  52.8251314  65.7370758  61.2900782  53.6747599
  65.7283306  61.6933537  52.2158957   8.1174040  45.9827423  10.8217490
   7.5673282  46.7519522  10.9699595   8.2699871  45.6252670  11.6964841
  13.8753176  57.8306103  62.7709103  13.7717712  58.7192726  63.1111908
  13.0159473  57.4265146  62.8909969   1.4044449  74.7129440  49.0394258
   1.6084452  73.8183117  49.3119144   1.1028615  75.1440001  49.8390913
  16.5462160  66.9923687  35.9630609  17.3752081  67.3447561  35.6392908
  16.7119968  66.0565567  36.0771060   7.6657873  29.0340638   0.5069447
   7.8593493  29.5155954  -0.2973528   7.4233860  28.1573796   0.2087856
  66.5413475  13.5745132   5.5319488  67.1373415  13.9619005   4.8908901
  66.6597319  14.1047275   6.3200414  24.1689324  61.2307930  40.9930420
  23.4587717  61.5500879  41.5497732  24.9206519  61.7747259  41.2281752
  17.6000643  55.4977274  45.6650448  17.2721076  54.6094942  45.8054829
  18.5307884  55.4466009  45.8826923   6.9656390  64.0043116  37.6764631
   7.0899647  64.9081421  37.9660678   6.0919410  63.9960957  37.2855449
  74.6709394  19.8642921  16.2493050  75.4278421  19.7219515  15.6809163
  74.8799944  20.6648636  16.7305660   7.6583409  72.3346806  57.0283604
   8.4289438  71.7669678  57.0388317   6.9512367  71.7728472  56.7112160
  17.0614123  61.4675426  58.3736706  17.4912894  61.5683126  57.5243855
  17.7720594  61.2525320  58.9778090  21.9742370  57.0068598  52.3087168
  22.5893021  57.6051331  52.7329826  22.5291681  56.4043236  51.8135118
  74.9850464  32.0517731   4.2690241  75.0538731  31.5131664   3.4807366
  74.1029739  32.4214673   4.2302471  30.7369947  74.3418598  60.5807304
  30.7314563  75.2984619  60.5472803  30.8192134  74.1352320  61.5117407
   2.6759341  26.9541693   6.8630677   2.7630267  26.4511204   7.6727521
   3.5686845  27.0184016   6.5237993  80.6346893  54.7039652  44.0210819
  81.4867783  54.2723036  43.9591074  80.2373314  54.5743418  43.1599569
  30.2325439  62.4002457  34.2952824  29.5574856  63.0196524  34.5725250
  30.0629687  61.6134262  34.8133492  78.7748337   7.4802589  21.1741853
  79.5266771   7.5077343  21.7659688  78.9022732   8.2278633  20.5901647
  38.3956981  70.7132483  40.4953098  38.1573153  70.6534719  41.4204216
  39.2256141  70.2406931  40.4308081  27.0913434  56.8211174  54.9139404
  26.6494775  57.6372433  55.1482916  26.7850637  56.6288710  54.0276766
  53.0811596   2.1271615  24.5379567  53.4425545   1.9263627  25.4012656
  52.7155638   3.0069825  24.6300793  29.1700792  61.5913677  58.4314966
  28.6545157  61.4683008  59.2285442  29.7627521  62.3138666  58.6387825
  63.9626217   8.9586759   0.6631658  63.4237337   9.4565165   0.0483604
  63.9595985   9.4834733   1.4636721  45.5961561   8.8116360  40.1276016
  46.5366697   8.8567847  39.9554586  45.4022694   9.6148777  40.6107569
  78.8897610  49.2993021  52.0950508  79.7004986  48.8099861  51.9553852
  78.8926506  49.5058537  53.0296946  23.7487745  49.3034458  56.5310097
  24.6739364  49.0857887  56.6447306  23.7544894  50.1791525  56.1445761
  21.7947388  49.1026974  58.3465719  22.1430159  49.5188951  59.1350603
  22.5008440  49.1771603  57.7046204  76.5660477  28.3652377   7.0824969
  76.4184666  29.3071508   7.1676296  77.2214556  28.2871866   6.3892555
  17.7747798  43.7246704  51.9828701  17.4497581  43.7134600  51.0826111
  17.6510239  44.6290636  52.2709513   2.2104941  44.8568153  49.8573112
   2.1134983  45.1669502  48.9569569   2.3297390  43.9107990  49.7732353
  66.8627501  37.0892072  64.7717810  66.6541624  37.9393172  64.3844366
  67.7841282  36.9468045  64.5549679  39.5674706  57.2226620  59.3053913
  40.3075647  57.7297688  58.9717197  39.0299606  57.0468807  58.5331106
  55.4203892   0.8595366  35.6844234  55.7538509   1.2688161  36.4828730
  55.8209133   1.3599479  34.9735069  28.5986876  69.3434429  63.7671232
  28.2647419  69.8508358  63.0273485  28.9401984  68.5410213  63.3725023
  31.2642837  58.5352087  34.2470860  31.7533016  57.8633738  33.7719750
  30.3980708  58.5339975  33.8397717  20.3173447  55.4899597  46.5151596
  20.4734540  54.9734068  47.3057508  20.2328420  56.3899755  46.8299103
  41.5672827  75.6258678  42.2540140  41.6648006  75.7549477  41.3105822
  42.0900726  74.8469973  42.4444962  16.9007969  13.8634205   4.4309175
  16.6004467  13.1570029   5.0027525  17.5827420  14.3066037   4.9356666
   0.0884410  75.5342913  46.8607998  -0.1673726  76.4557743  46.8200111
   0.5927821  75.4613686  47.6710796  12.8406751  62.6602745  45.2770948
  12.4548495  62.3999262  44.4406796  13.7840331  62.5653410  45.1455879
  59.4426298  35.1823068   0.9501040  58.5750723  35.5271459   0.7387628
  60.0107193  35.5233169   0.2592954  30.5351901  69.4677639  31.7081976
  30.6771445  68.5298872  31.5798903  30.9319735  69.6559095  32.5587249
  79.1962862  69.1521215  50.5258942  79.5122051  69.8073387  49.9037075
  78.7009287  69.6549845  51.1724091  70.4089880  10.8182728   9.3113750
  70.0406122  11.2370062  10.0893164  70.3324318  11.4801621   8.6241543
  78.5239220  28.4683347  11.4769018  78.2723236  29.2469549  10.9802330
  79.3481588  28.7097812  11.8994737   6.2934136  71.9810104  50.5338001
   5.3826088  71.6866350  50.5309057   6.2533307  72.8806400  50.8582783
  21.9417834  53.1369591  61.8763208  22.5939322  52.7951097  62.4879360
  21.1004496  52.8936720  62.2625923   8.9923215  65.7747889  57.5439262
   9.4370395  65.0012779  57.8905392   8.7675560  66.2893343  58.3191395
  35.1953745  20.4170918  36.7718124  34.2668414  20.2747822  36.5879440
  35.6353521  19.6620870  36.3811493  15.4625380  56.7848587  60.8539438
  15.5146551  57.4179459  60.1379013  14.8125935  57.1531343  61.4524269
  25.5332232  18.1351280  56.8122530  25.9318495  17.7473152  56.0331917
  24.6088457  18.2340753  56.5842915  32.2149539  69.1411304  33.7683749
  32.0058131  68.2177830  33.6272407  33.1512809  69.1469717  33.9670968
  75.6313419  42.5569391  61.3363600  74.8193407  42.2081614  61.7041159
  76.3252306  42.0993900  61.8111181  34.3033600  74.5303726  65.3677797
  34.1830206  74.5464087  66.3172483  35.0653124  75.0888062  65.2134609
  16.3539481   1.9677570  41.4920187  16.8361318   2.1382733  40.6829119
  15.9904528   1.0901882  41.3738012  12.9023945  72.9794979  34.0607476
  13.3590245  72.2427416  34.4668460  12.9516399  73.6798286  34.7113943
  31.9505835  67.8111553  45.3937197  31.9125962  67.0034313  44.8814964
  32.3941112  68.4371328  44.8213005  31.6635084  68.2873058  57.0252132
  30.9566855  68.1504059  56.3944292  31.4187813  69.0880156  57.4891186
  34.7905874  75.8664656  43.3886194  35.2957487  76.6042042  43.7303495
  35.2420807  75.6205463  42.5812101  50.3699780  14.1608381  62.5365829
  49.6888304  13.8053298  61.9657230  51.0000086  14.5609641  61.9372559
  70.0887680   1.7976113  48.6877298  69.1516256   1.9820496  48.6246872
  70.1507139   1.0878045  49.3269253  48.4707022   9.3864071  56.8870640
  49.3028164   9.0145928  56.5945339  48.5559177   9.4450414  57.8386593
   1.5099885  29.8749185   2.8366208   0.7414942  30.3709960   3.1186786
   1.7643419  30.2786088   2.0068190  29.2353249  15.0267887  49.9501038
  29.4934392  15.7060790  49.3270731  29.7016788  15.2507389  50.7554579
   0.4423972   9.3508154  46.6370869   0.7185813   8.4372574  46.7103577
  -0.4047040   9.3100846  46.1932468  39.9724960  64.2458487  48.5903835
  39.5626879  64.1829681  49.4531345  40.4781008  65.0579214  48.6240053
  62.8968954  31.3094640  49.9894381  63.1792641  32.1434927  50.3647995
  62.3301983  31.5554929  49.2583036  35.5543995  75.5237770  29.5932317
  34.7051430  75.1257420  29.7844434  36.1924314  74.8468733  29.8189378
   5.1741838   4.5555428   4.0241504   4.4047520   4.5759401   3.4551248
   5.6766874   3.7995660   3.7204707  36.8569541  65.2474737  43.0926561
  37.3827863  65.3824902  42.3043060  37.1173167  65.9580040  43.6788225
   9.0522915  27.0358515  26.1717486   8.2604152  27.5704956  26.1141419
   8.7933093  26.1852622  25.8172703  81.8307972  59.4843817   0.7630727
  81.7093563  58.7680340   0.1399074  81.0810280  59.4171858   1.3543162
  56.5894556  62.8873014  62.4699688  57.3840666  62.3813009  62.3002863
  56.0720348  62.3321962  63.0533743  63.0607843  16.8040383  61.0715723
  62.2966194  16.4489686  60.6174707  62.8693295  16.6739249  62.0003605
  44.1585684  24.5716572  58.1938601  45.0244665  24.2667818  58.4649658
  43.8485289  25.0982332  58.9306307  12.9440188  44.5091105  11.2836957
  13.0748427  45.0251865  10.4882181  12.1234715  44.8383093  11.6505253
  10.5968916  14.7871792  39.7567797  10.3561699  14.0562141  40.3259659
   9.9763966  14.7388721  39.0295362  49.2096758  74.4908094   6.4052165
  48.7052965  74.7903824   5.6488526  49.1352177  73.5368395   6.3801360
  14.4419396  50.7568598  65.2250385  13.6709034  51.3061380  65.0835085
  14.7022772  50.9376383  66.1282396  33.7563252  61.1433792  54.0454912
  34.7068095  61.0632563  54.1254425  33.5749674  60.9381151  53.1283188
  54.7641516   4.0346169  52.1229410  54.7648573   4.2324394  51.1864090
  55.6702137   4.1747090  52.3980093  71.0326099   3.9736238  32.2880554
  71.4155293   4.5550200  32.9450035  71.1128569   3.0982867  32.6669717
  59.5216417  20.1931310  41.7272806  58.7485790  19.7742021  41.3489819
  59.2885637  21.1198258  41.7833757  11.0876203  30.8386374  29.6160889
  10.8886886  31.7356038  29.3475628  10.3146768  30.3351307  29.3606019
  39.1755891  73.1284857  46.5489531  39.5381188  73.9979362  46.3790846
  38.6337352  72.9409885  45.7824850  32.0047951  64.5990372  46.3103247
  32.7059388  64.3439341  45.7106972  31.2538147  64.0710974  46.0391474
  42.8459740   8.0719090  48.4804153  42.2585344   7.3161656  48.4815598
  43.5343933   7.8392196  47.8573895  60.0570774   8.5495627  50.9989786
  59.1928911   8.4159005  50.6096840  60.6002188   8.8613981  50.2751064
   1.5804525  37.0603228   3.1685176   0.7531025  37.5407505   3.1987298
   1.3520637  36.2139869   2.7840891  25.4591680  67.0825577  57.4529076
  26.1332345  66.6754961  57.9971218  24.9179149  66.3513899  57.1551323
   2.3010011  72.9244614  52.6817894   2.8030527  72.9983664  53.4934044
   2.4290761  73.7657213  52.2434807  25.5072999  74.9020863  54.7910023
  26.2412310  75.3939486  55.1593113  25.2860856  74.2605543  55.4660845
  77.9343987  15.0085318  49.0766191  77.0329428  15.1712906  48.7989092
  77.9157114  15.1185346  50.0272942  57.5533295  12.6288521  58.0989122
  58.1095982  12.1148455  58.6842251  57.2132683  11.9916153  57.4708033
  15.3475964  66.8552256  46.0601807  14.9226141  66.6929245  45.2179909
  16.2772679  66.7001629  45.8931541  69.1389227  26.1899161  41.4498186
  69.7630405  26.5086937  42.1018076  68.4871674  25.7071447  41.9581270
  64.9932098  12.9315507  32.7038860  64.5298815  12.9570949  33.5410857
  64.3021059  13.0023599  32.0454073  12.1538591   5.9310246  11.5142727
  11.8702090   5.0514627  11.2649846  11.3618517   6.4648908  11.4514744
  25.8069921  63.0257177  57.9122972  25.6645274  62.9337931  58.8543606
  24.9978876  63.4186697  57.5849247  13.8547719  29.2940283  52.3416042
  12.9029810  29.1924119  52.3403740  14.1688192  28.6016011  52.9231071
  37.6852441  56.3911533  57.4300575  37.0638824  55.9030867  57.9703665
  38.3694839  55.7559776  57.2188759  76.7798805   1.7241053  43.1098127
  77.2765064   2.4320360  42.6994133  75.8975744   1.8098648  42.7486801
  32.9487729  66.6447878  54.7621155  32.5391912  67.3514652  55.2611971
  33.1771708  67.0452023  53.9232254  20.2327752  69.3109035  63.9705801
  19.9313462  68.6339092  63.3647299  20.7129049  68.8315248  64.6457863
  66.9342709  27.9687285   4.1813526  66.0373545  28.2225227   4.3989751
  66.8365479  27.3078513   3.4958416  14.8509717   3.0368415  43.7896156
  15.3947735   2.7699724  43.0484724  15.1827240   2.5243956  44.5268869
  31.9866776  76.6685057  43.2898092  31.8970704  77.5019264  42.8276300
  32.9291725  76.5018463  43.3025932  76.1436844  10.8005142  54.7818232
  76.5544844  10.1194751  54.2492247  75.2148438  10.5694497  54.7913170
  21.9763446  67.3294353  41.3237619  21.6363358  67.9144859  42.0007706
  21.5241098  66.4995098  41.4752007  67.4576902  19.0218461  46.2825537
  68.1663609  19.3027437  46.8614435  67.7278519  19.3164790  45.4128170
  35.4528904  17.0466840   7.5568843  35.4962659  17.6521051   6.8167382
  35.1880574  17.5923049   8.2974195  52.9734898  34.2596245   4.5456403
  52.9948330  34.9222183   5.2361071  53.6220121  34.5574760   3.9077261
  72.5890017   2.9297012  49.2464638  73.0539370   2.2461063  48.7640095
  71.6645575   2.7711615  49.0554237  74.2192554   0.3795414  23.4585214
  73.8578272   1.0130806  24.0783834  74.1996765   0.8317249  22.6150870
  56.1077166   2.7506396  37.4721456  56.8028975   3.4056866  37.5343537
  55.3623676   3.2264620  37.1057010  26.5164089  76.7552757  64.9793386
  26.9559169  75.9089041  65.0612974  26.2775254  76.8125153  64.0541935
  41.4310932  12.7265596  33.6267209  41.4213991  11.9137049  33.1213450
  40.8823395  12.5413263  34.3888187  28.4321642  61.7654085  38.4712315
  28.3654451  61.1802053  39.2257595  27.9065943  62.5281668  38.7124968
  45.4627848  71.3971901  65.6848574  45.7711172  72.1736765  66.1520147
  45.8690548  70.6632614  66.1458540  65.4282475  15.1394570  19.6728718
  64.7385788  15.3507626  19.0436316  64.9627352  14.7708964  20.4236674
  23.9927149  64.4639111  40.7120228  24.6295214  63.8668203  40.3193474
  24.1981149  65.3175926  40.3308916  70.9508324  15.1343882  11.5281546
  71.6059256  14.7522652  12.1121621  70.7864475  16.0052609  11.8898046
  26.8366957  65.2426195  37.1582890  26.0787654  65.1483870  36.5813160
  26.4857602  65.6502533  37.9500651  42.1723080  62.3799944  61.7887735
  41.3754606  62.7476168  61.4065123  42.6945019  63.1436682  62.0344162
   9.5715833  15.9240174   4.7678098   8.6590457  15.6374156   4.8047760
   9.9425697  15.4469824   4.0254903  76.1057329  17.6565838  43.9198828
  75.6854868  17.9884219  44.7132969  76.9260645  17.2705400  44.2268896
  21.5992403  52.0664740  14.1424108  21.7106247  52.1352577  15.0906169
  21.5221834  52.9726791  13.8439405  41.4088821  71.3213253  58.4690237
  41.9954348  70.5883312  58.2821846  40.5782413  70.9089708  58.7061405
  35.0015211  65.4916620  35.1923752  34.2689061  64.8852396  35.3008103
  34.6713614  66.3275051  35.5219030  43.4536076  69.7028923  58.6243010
  43.8003445  70.2760601  59.3080282  43.7892437  68.8345051  58.8467455
  22.6753044  58.0612803  59.1509438  22.7978873  57.8398657  60.0740814
  21.7255855  58.0776501  59.0326357  50.3573084  18.6965799  48.7973595
  50.1876307  19.4550943  49.3560123  51.2854576  18.5040057  48.9303493
  22.6643896  48.9049006  10.0207639  22.5222015  49.8441458   9.9031675
  23.6010838  48.8251734  10.2009726  30.8280635   9.7278279   1.1341555
  31.1276150   8.9880240   0.6057689  31.6302395  10.1930881   1.3713881
  70.0088787  16.9028866  58.2265139  69.6931648  17.7756405  58.4607315
  69.2142439  16.3768268  58.1367826  50.8268023   6.9129759  33.5409784
  50.0836134   7.4080265  33.1962657  51.0714340   7.3753202  34.3426180
  59.2237473   2.6275143  51.8871307  59.0358496   1.6952106  51.7787933
  60.0387478   2.6508963  52.3885870  72.5458622  15.3717864  58.4032488
  71.6491079  15.5114138  58.0989981  72.4824429  15.4025865  59.3578482
  81.5448475  29.2529368  12.0257509  81.8057442  29.9541759  11.4287353
  81.6827297  28.4486818  11.5253592  55.9042311   1.3655177  59.8499537
  55.9193850   0.5839602  59.2975330  55.3668022   1.9914883  59.3646097
  47.0943117  13.6056590  43.9110947  46.4936543  13.7208641  43.1747723
  47.4249601  14.4858503  44.0904427  64.2711449  12.6699257  64.8875380
  65.1747179  12.9843879  64.8574543  63.7855148  13.2835400  64.3362951
  41.8513584  74.7039557  29.1912007  41.7724276  74.4600296  28.2689738
  41.0080767  75.1023483  29.4065952  49.0404177  67.2424555  65.1893473
  49.5533276  67.2819090  64.3821335  49.6268559  66.8338394  65.8260202
  43.9721060  72.0416641  45.9850931  43.9014912  71.0877848  45.9481716
  43.6617374  72.2710800  46.8610334  58.4639120  26.4783621  62.4319172
  57.8863001  25.8525562  61.9949245  58.8060951  27.0235729  61.7234802
  55.7528565  64.2003043  67.1282188  55.6313536  63.6089690  66.3853918
  56.3894246  64.8450454  66.8194769  16.4255929  52.6693010   5.3254157
  16.8349087  52.4073124   4.5007610  17.0509470  52.4016285   5.9988534
  63.8370609  28.2867837  59.9529028  63.5811043  27.5881314  60.5550671
  64.5574808  28.7338758  60.3971291  62.5066948  59.5981836  39.9933338
  63.0469751  58.8597965  39.7120571  63.0834961  60.3585672  39.9202347
  44.4896650  73.2513714  53.3499861  44.6693563  74.1219282  52.9949093
  44.4448233  73.3835268  54.2969608  38.8986468  72.7372837  51.0233927
  38.8369942  73.6828327  51.1589146  38.7476301  72.6193857  50.0855637
  21.8268371  71.0918140  48.6137772  21.0645962  71.6184855  48.3732843
  22.4405313  71.7191839  48.9959002  78.3812237  25.3951383   6.2973255
  78.5073900  26.2447405   5.8748448  78.8758898  24.7816634   5.7540160
  37.6399422  71.0105276  66.6653299  38.2914233  71.2100744  65.9930277
  37.9829931  70.2345085  67.1084309  70.8612156  15.6556177   2.4618062
  70.2529716  15.6100380   1.7241080  71.1227942  16.5755880   2.5000665
  54.7128439   6.8316162  51.0622358  54.7079563   6.4806163  50.1717281
  53.8122654   7.1198118  51.2110329   4.2438576  71.6198015  48.2722759
   5.0578517  71.8465471  47.8225756   4.0310225  70.7423639  47.9544210
  34.9321771  74.2917490  50.9953594  35.2148986  74.2291546  51.9077063
  35.2027845  73.4615326  50.6032562   6.0030162  28.4163785   2.9172313
   5.2566946  28.8307858   3.3502474   6.3181740  29.0761828   2.2995214
  47.0431948   7.1440381  23.4543920  46.4179277   7.8314257  23.6841154
  46.4980459   6.4029729  23.1900620  43.4565067  66.4460564  51.3738108
  43.8265944  65.6238604  51.0524702  44.1915655  67.0591211  51.3652229
  20.3911972  74.3268967  60.9175587  20.8769751  74.4042349  61.7387009
  20.7955551  74.9728012  60.3383112  28.6419892  65.9886074  51.1706972
  28.9243174  65.4781532  50.4117775  27.7442741  66.2485981  50.9639502
  31.5930605  64.3453550  55.3052521  30.7724333  64.6392441  55.7007647
  32.0060468  65.1477861  54.9862242  20.2627802  62.2051620  57.2836018
  19.7296000  62.0913458  56.4968348  19.7768939  61.7484951  57.9703379
  52.3385811   5.2287972  65.8457994  52.7547121   4.3991035  65.6119680
  52.0905781   5.6171763  65.0068188  77.4094057  11.2486672  10.9679425
  77.8277159  11.6019392  10.1827991  78.1092358  11.2211347  11.6204083
  14.2332578  24.9263453  -0.2011294  13.8119531  25.6784153   0.2149553
  13.8914883  24.1680026   0.2725171  14.8758316  29.0764856  14.4175947
  15.1972175  29.2167020  13.5269308  15.6411004  29.2215371  14.9739730
  13.8350761  22.0620084  43.4785748  14.7009456  22.2287273  43.1061411
  13.9897633  21.4096451  44.1617489  40.8057928   4.1861275  64.9568748
  41.6374111   3.8100260  64.6684456  40.6213522   3.7499446  65.7887125
  68.8002205  22.7297974  59.8025703  69.1811419  22.3377442  60.5883360
  68.8253498  23.6721206  59.9687910  81.5436363  46.8119621  13.4487891
  82.2952938  46.7013216  12.8665459  80.8113289  46.4222383  12.9712188
  12.1588457  61.9016266   5.1526934  11.8084288  62.0636940   6.0285777
  13.1074810  61.9757605   5.2567512  57.8203869  58.9640760  50.6786203
  57.4339056  59.5295143  51.3473082  58.4340668  58.4090185  51.1598110
  53.3093405  76.4431000  56.5219355  52.5173378  76.9608784  56.6663885
  53.6814213  76.7950678  55.7132864  38.0391455  76.5730476  63.4085703
  37.9094195  75.7135201  63.0078030  38.3798313  76.3810015  64.2822313
  38.9041448  55.3108168  45.3213167  38.2347822  55.9808159  45.1824236
  39.0959597  55.3544617  46.2580824  52.6541281  75.6428528  32.7896881
  52.4003220  75.5803728  31.8688655  52.9544306  76.5456438  32.8946352
  35.4628181  68.1913710  54.1775227  35.0997424  68.4756470  55.0163269
  34.6969223  68.0441236  53.6225891  67.6443195  27.1728992  57.3264933
  67.8267670  26.2470388  57.1660948  67.3320436  27.2023153  58.2308435
  23.5187340  72.9667568   2.4811515  24.3959546  73.1331444   2.8261587
  22.9811001  72.8126431   3.2579604  15.7644963  73.7695122  35.4870772
  15.8662140  74.2190027  34.6481204  15.7628334  72.8392220  35.2617216
  63.1276798  72.0655775  57.1687365  63.2974386  72.8340864  56.6239357
  62.3897791  72.3222923  57.7217531   7.5275505  54.8432875  59.3095064
   6.9077331  54.1139174  59.3006325   7.6073319  55.0785685  60.2339029
  42.4256182  41.8031311   7.1034926  43.2420015  41.3075304   7.0391697
  41.7668247  41.1499262   7.3391688   7.0379895  28.6711884  18.8062453
   6.5322608  29.0719819  18.0992556   6.7361182  29.1156554  19.5984292
  72.0111370   1.8202800  29.8291159  71.7643929   2.7336454  29.9744153
  72.4151659   1.5473814  30.6528401  34.1386914  69.2915964  59.5132017
  33.3658624  69.8458290  59.4046068  33.8349628  68.5596037  60.0500154
  32.3608184  67.1208525  63.4959936  32.0852661  67.5479412  64.3071032
  32.4324393  66.1943436  63.7255239  17.1259141  10.5146706  54.4964361
  17.3467648  11.4437437  54.5618582  17.9689837  10.0753665  54.3847322
  82.0813656   9.0784198  42.7382898  81.6742229   8.2455117  42.5001049
  81.3489723   9.6900743  42.8138447  21.2641716  64.7322083  57.1530008
  20.9185195  63.8396168  57.1470594  21.0603499  65.0737858  56.2823629
  22.7258110  73.2352495  28.6015940  21.8143106  73.3403206  28.3289003
  22.9596066  74.0799761  28.9863110  28.5043669  75.9326887   4.9338454
  28.7158918  76.4581823   5.7054305  27.5553274  75.8155489   4.9766663
  39.0106964   1.0262053  56.3411379  39.0934420   1.2760171  57.2614527
  38.2220745   0.4846026  56.3099432  42.5446510  70.8435106  53.6509991
  43.1886864  71.4460754  53.2790136  42.9854059  70.4600334  54.4092274
  69.4897652   4.9633589  55.4296446  69.1868925   4.0566391  55.4782200
  70.0509548   4.9872264  54.6545792  57.3869133  38.1807971   7.8384799
  57.7792025  38.8169885   8.4364790  56.6144943  38.6251926   7.4890304
  32.6883411  43.3898592  15.8189571  32.5357652  43.3791924  14.8740554
  32.4842525  42.4993610  16.1045945  40.6585073  74.5188284  62.7929068
  40.8453989  73.6995697  62.3345137  39.7393298  74.4453001  63.0496931
  34.3472052  45.4144859   5.7645011  35.0551271  46.0381842   5.6030327
  34.0279579  45.1834297   4.8921895  61.7612123  22.7174234  59.5443344
  62.1136332  23.1125903  58.7469149  61.4554882  23.4602785  60.0648499
  19.8373306  73.5923243  14.6711004  20.1710510  74.2141151  14.0243864
  20.4112387  73.7038755  15.4290044  44.5074415  75.4204369  40.5981064
  45.4423475  75.2852249  40.4435110  44.1294146  75.5031824  39.7226191
  63.3083010  18.5483873  49.2082596  63.6520004  18.9278543  48.3994865
  64.0795374  18.4251356  49.7616434   1.5612260   0.1782564  59.8926115
   1.6680670   0.7819652  60.6276989   0.8145896   0.5251730  59.4043350
  48.2367039  64.4983721  43.5457087  47.7042818  65.2043200  43.9123106
  47.7061033  63.7108612  43.6662149  63.2963085   6.2046778  29.2109871
  62.8429031   5.8636832  29.9819469  62.6014757   6.5835088  28.6725378
  45.8548546   0.2299215  19.6222925  46.4792776   0.0990191  18.9087117
  45.5268383   1.1198609  19.4932866  71.9297743   7.5911689  63.3803463
  72.7835608   7.1678638  63.4703493  72.0119858   8.1315041  62.5945282
  37.9070973  73.3701706  35.5152297  38.7259221  73.8574934  35.4242682
  37.3215675  73.9698553  35.9775758  80.5626774  27.7544713  38.7373400
  79.6822405  27.5381660  38.4303093  80.9481239  28.2606268  38.0221653
  50.9550285  -0.2008525  26.0657191  51.8538761  -0.2834398  26.3842797
  50.8821058   0.7124397  25.7885695  23.8841772  72.5278187  60.2961540
  23.3528781  71.8884754  60.7707024  24.7868776  72.2455120  60.4433584
  33.6150050  74.0552187  23.5960412  32.8119612  73.6612654  23.2552266
  33.6170721  73.8284445  24.5259881  80.9092808  29.2964983   6.0434896
  81.0337925  28.5576987   5.4477519  81.6779995  29.2767358   6.6135007
  60.3067493  16.7828906  34.6847892  59.7269011  17.5308585  34.8281384
  61.0276079  16.9173002  35.3000379  67.7979946  10.0638592  65.7720184
  67.9798698   9.3870270  65.1200581  67.7105570  10.8696222  65.2627707
  56.7577600  75.0516987  49.5391846  56.8938255  75.2755260  50.4598475
  56.9186163  74.1091204  49.4955492  77.6772070  56.1479712   6.0258514
  78.1978607  55.8039570   6.7516643  77.3949671  55.3705597   5.5439758
  58.1872368  10.2903664  47.5940561  58.4595537  11.0081637  48.1657600
  57.2463512  10.2052438  47.7480841  38.2806396  74.1990662  53.7348270
  37.3250937  74.2436886  53.7690496  38.4801173  73.2668495  53.8209105
  77.2940063  20.1097274  36.5180063  77.3832846  19.6415627  37.3481154
  77.8990746  20.8476377  36.5929174  62.0591879   9.9825287  42.5954676
  61.9330788  10.3424060  41.7175055  61.2753105  10.2463210  43.0773211
  55.7540798   0.0960042  46.0261631  54.8045349   0.0424168  45.9178782
  56.0373735   0.7147443  45.3530073  68.9935684   7.6546478  53.3799028
  68.3881187   7.0949459  52.8936958  68.4815216   7.9719567  54.1237831
   9.6865845  61.1238480   3.7806872   9.9530923  60.3328705   3.3121109
  10.4239023  61.3196182   4.3588448  57.9062319  73.2134008  46.6617107
  58.6213779  73.7097025  46.2636089  58.0124235  73.3532333  47.6026726
  14.5337558  56.9901180   8.1974792  14.5342422  57.6369047   8.9030999
  14.0934789  56.2272263   8.5721576  73.2490778   4.7723386  51.2987995
  72.8557253   5.5346286  50.8740425  73.2592535   4.0982217  50.6193161
  61.6043472   0.2988621  55.8930492  61.2679386   1.1938523  55.9383869
  62.5002670   0.3626966  56.2239313  63.9614273  10.4704513  66.3780400
  64.3562419  11.2173405  65.9280280  64.0290213  10.6879320  67.3077524
   2.0624883  25.2699447  63.5923290   1.7830360  25.5116844  64.4753361
   1.5935978  24.4562817  63.4070539  29.1081190  65.4425144  55.7218933
  28.4974194  64.9349976  55.1873779  28.6455059  65.5803633  56.5484667
  17.9568124  76.2879801   2.0424335  18.3305871  75.6791687   1.4053544
  18.4155893  77.1128464   1.8831956  35.4531002  48.3378839  17.2522330
  35.9136987  47.7021599  17.7998996  34.5327377  48.0812740  17.3097980
  58.7458038   2.0898162  43.3421326  58.7183237   2.7392596  44.0447664
  59.6153212   2.1921815  42.9552317  27.0507026  62.5330687  45.1035309
  26.5579677  61.7965126  45.4653740  26.6955066  63.3014536  45.5503559
  48.4851217  64.4459200  15.8315110  47.9730988  63.8755178  16.4048433
  49.3699408  64.0818691  15.8596432  77.3667288   2.4372995  27.5514340
  78.2837439   2.5624380  27.3071837  77.2543192   1.4871907  27.5812507
  24.3626571  18.9866138  42.3729897  24.5508456  18.8270509  43.2978439
  23.5770369  18.4693086  42.1957111  10.6662118  16.6873884  12.1735263
  10.9016895  17.3367023  11.5108252  11.0855305  17.0003140  12.9750752
  66.0246754  14.7376549  44.8446035  65.8184814  14.4474244  43.9560747
  66.7223740  14.1491687  45.1329374  73.5276985  13.9987051  28.2204390
  74.4053745  13.9389455  28.5977221  73.5683203  13.4568214  27.4324393
  77.4578714   4.2811221  13.1518126  78.3243036   4.3603048  13.5508811
  77.6347971   4.1254443  12.2240782   9.1633052  21.6273952  27.4753666
   8.9984840  21.4486599  28.4011745   9.9602836  22.1575332  27.4719667
  26.1534858   8.8692975  44.0346766  25.2327466   9.1104871  43.9331818
  26.4013553   9.2242509  44.8883772  13.8998652  17.0943952  13.5419667
  13.8314974  16.2414694  13.1129277  13.0435395  17.2273374  13.9484930
  70.6135893  10.6247020  48.0512476  70.0779343   9.8587084  48.2575464
  70.4307747  10.8034122  47.1288204  60.1672316  26.1799550  58.1094980
  59.8437262  26.3347268  58.9969826  60.7752085  26.9011974  57.9470110
   6.0817069  19.9592042  36.3507009   5.6083792  20.5648708  36.9211030
   5.6371802  19.1200531  36.4709282  12.9864979   5.2343774  21.4628959
  12.5543690   5.9854811  21.0562778  13.8390338   5.5697757  21.7402434
  64.6315908  75.2457619  52.3519278  64.1664457  74.6071386  51.8115282
  64.6842146  74.8358345  53.2153082   8.0116534  29.8467636  35.7002974
   8.4409618  30.0264502  34.8638535   7.4817628  29.0669608  35.5348992
  81.0433006  14.8746288  62.2688103  81.3882446  14.0814376  62.6787949
  80.2138805  14.6006322  61.8773746  75.6098843  72.4474955  52.9951334
  76.1481333  72.7914143  52.2822285  74.7471094  72.3161221  52.6019430
  77.2474623  19.3143678  47.8471184  77.2680759  20.2476335  47.6354074
  77.9094934  18.9245665  47.2761583  80.5920696   0.7606553  49.9730873
  80.0097179   0.8617647  50.7259989  80.2418327   0.0064760  49.4989729
  14.3418229  22.9747462  51.5818691  13.4959984  22.7882576  51.1743975
  14.3882895  23.9303827  51.6106892  18.3778727  27.5369740  58.3722878
  17.9401720  26.7372751  58.6640549  19.1164970  27.2279906  57.8477001
  33.8523698  14.2339087  41.5363789  33.3167148  14.6566296  40.8651018
  33.3060431  14.2472279  42.3222446   7.5797373  10.5479944  33.3772063
   7.5652057  11.4065003  32.9541349   8.5098064  10.3545308  33.4945750
   4.1699263  14.3296015  40.7532692   4.5780602  14.2603242  39.8902178
   3.9309019  13.4303951  40.9780550  37.9865146  14.1440511  35.4453826
  37.4321651  13.6922503  34.8091412  38.7328792  13.5581553  35.5714703
   8.5790640  12.1864724  43.2955408   9.4872069  12.3518014  43.5488701
   8.6074495  11.3468754  42.8367329  74.4260120  20.3879952  35.7594633
  75.3421783  20.2517557  36.0009503  74.1116285  21.0493302  36.3759279
  60.3134346  77.2107220  55.7721663  59.3790913  77.3868322  55.6616354
  60.3553009  76.2874746  56.0213661  54.8940849  45.5303526   5.9588277
  55.5524778  45.1805973   5.3584772  54.1132689  45.6455803   5.4172713
   3.6158538  19.7868180  41.7080498   3.8449457  18.8660669  41.8344069
   3.2620448  19.8258436  40.8194971  29.3354130   7.2521782   6.9513363
  29.6339417   7.9902792   7.4826747  28.7911892   6.7345291   7.5447094
   9.6225244   8.9188206  50.0560474   8.9974254   8.2300347  49.8300886
  10.3600144   8.4530497  50.4502487  28.8031697  12.8669357  31.3408136
  28.4416437  12.1202266  31.8182611  29.7513080  12.7432513  31.3851285
   8.0122292  22.9093218  60.1235819   8.0403787  22.3530626  60.9020519
   8.4322762  22.3867035  59.4404554  66.7659664  69.5568466  29.9965477
  67.1174717  69.7108221  30.8734560  65.9814167  70.1035404  29.9535966
   5.1329541   7.6291722  34.7825313   5.9351689   7.8549361  35.2533960
   4.6520093   7.0632267  35.3863764  15.5966628  12.4116349  30.2385688
  15.9496832  12.6810431  29.3906116  14.8815036  13.0253756  30.4061961
   4.8809984  53.1635618  48.5050106   4.1275424  53.0789566  49.0892839
   4.9378625  54.1013336  48.3217525   1.0682846   9.0752369  10.1225007
   1.0406949   8.1185794  10.1391459   0.5410893   9.3168384   9.3609720
  33.8811135   7.5510317  30.4483938  34.5265269   7.3641402  29.7666740
  33.6864734   6.6970718  30.8345294  44.6606827  75.6608582  52.1299076
  44.4949102  76.3336754  52.7902603  43.7895012  75.3690910  51.8613052
  78.0210590  16.5497065  38.2251787  77.5062418  15.8298659  37.8604579
  78.0577660  16.3663077  39.1639280  71.8654871  66.4741993  20.0188160
  72.0993328  66.0716105  19.1824734  71.4157200  65.7804346  20.5011368
  63.3567619  72.2713137  34.8539710  62.9214334  71.4485407  35.0770521
  62.6688004  72.9330969  34.9245739  72.4731731  22.1428275  22.0835018
  72.4967861  21.2395453  22.3993444  73.3126211  22.5137043  22.3555493
  23.7817693  17.4694216  33.2611251  23.9145899  16.6524947  33.7419796
  24.5769191  17.9762423  33.4257555  30.3622651  24.6856713   6.6780514
  30.1371050  25.5569243   7.0043218  29.7918749  24.0921807   7.1665746
  57.0263815  62.2901154  15.3692949  56.8877602  63.2133055  15.1577830
  56.8457365  62.2295713  16.3073421   8.5761225  21.8148637  42.4168873
   9.3742967  21.4302588  42.0546341   8.8877553  22.4905181  43.0190563
  61.3684940  76.3458300  60.2951622  60.9059954  77.1800184  60.2148438
  61.8300676  76.4074278  61.1314583  33.8930440  62.7794170  57.1336365
  33.0586791  62.3503876  56.9439030  33.6479497  63.6390448  57.4759769
   3.0048370  16.8625212  45.1718521   3.6533278  17.3824811  44.6971607
   2.3065811  17.4830687  45.3806353  14.0541267   9.2326927  49.7768974
  14.3693948   9.9458575  49.2217112  14.5720887   9.3062669  50.5784798
  26.1635661  31.8624592  37.8489304  26.0503340  31.0268998  37.3958850
  25.3245115  32.3099279  37.7394152  71.7211628  26.0839891   1.4349590
  71.6297436  26.2688589   2.3696768  72.6633453  25.9790969   1.3025838
  11.6855037   7.0718598  20.3339291  10.9933794   7.3579752  20.9300280
  11.2230098   6.6135037  19.6323323   9.7122353  14.5052981  65.2817917
  10.5419660  14.2658591  65.6946468   9.2343915  13.6792159  65.2077341
   0.4437539  18.4845841  41.7124128   1.2000051  18.6200166  41.1414719
   0.3879618  19.2875051  42.2305202  10.1637638   2.0742913  50.2098608
  10.4618549   2.9355475  49.9172688  10.1146948   2.1488519  51.1628914
  56.0856485  75.3399134  25.9259224  56.3529253  76.2465477  25.7748914
  55.2281046  75.4097319  26.3454223  16.6022301   0.9117816  58.8850546
  17.5176609   0.6640071  59.0147734  16.5902984   1.8602435  59.0135431
  73.4516621  13.1337345  44.4836473  73.9393187  13.5187948  45.2117634
  72.6824474  13.6951661  44.3870497   2.7549061  14.9279976  14.9494040
   3.1591684  14.2261004  14.4393599   2.9142240  14.6838665  15.8611333
   4.8435158  11.4930129  43.3521795   4.7920841  10.6876755  42.8373814
   5.5717862  11.9787121  42.9649448  56.3670492  16.3478518  34.6542740
  56.3236046  16.5481424  35.5892754  55.5462027  16.6878319  34.2981076
  36.6524577  76.3250685  23.5686374  37.2092199  76.9010687  24.0925336
  37.0946598  76.2701321  22.7214837  17.6197481   8.5481656  47.0964003
  17.9602599   9.0516895  46.3569736  18.3938205   8.1419206  47.4862814
   5.8338553  11.8069899  28.0702806   6.3472110  11.7331302  28.8747931
   6.0842896  12.6548564  27.7033520   7.6379699  19.2224753  50.7307243
   8.1950080  18.8002849  51.3847113   7.0125014  19.7344732  51.2434435
  70.3993940  10.8428180  54.0345860  70.8841133  11.2502801  54.7524023
  70.7503939  11.2540936  53.2447243  80.1637554  61.2716722  31.6722798
  79.7341585  60.8326578  32.4064064  79.5484304  61.9560575  31.4091802
  56.0422230  76.1345816  52.4164629  56.7959738  75.8356667  52.9251337
  55.4678679  75.3704023  52.3677778  76.6905689   1.7834203  34.4678164
  77.5690556   1.8788908  34.8357582  76.8188953   1.8483864  33.5214853
  60.4854536  73.0440235  51.6656399  59.6465111  73.0711508  52.1257114
  61.1247873  73.3347130  52.3160124   2.5534120  40.3425932  63.3138514
   1.9899082  40.1842642  64.0712357   3.1238559  41.0615063  63.5858536
  25.4578638   5.4107487  21.7155123  25.7100749   4.5931378  22.1446204
  24.9333477   5.8726215  22.3695683   9.6048677  18.4683263  35.0679088
  10.5551183  18.5603762  35.1370597   9.2556685  19.1959357  35.5825710
   9.9587792   9.4258910  47.0056343  10.7500696   9.0921289  47.4283552
   9.5304978   9.9523473  47.6806545  46.3237000  67.6744509  46.4457083
  46.1157084  66.7946434  46.7602062  46.8578291  68.0574989  47.1415615
  15.7089782  34.8649931  45.7740545  14.9086750  34.5139146  45.3835487
  16.4163947  34.3878222  45.3403473  64.7569656   5.0785333   2.0804669
  65.0647020   4.9359214   2.9755589  64.7949839   4.2130512   1.6733706
  26.5195799  14.7670865  49.2561293  27.3931289  14.7502565  49.6471024
  26.5585661  14.1169751  48.5546541  71.0274982  24.4640613  61.4271164
  70.1896095  24.9230242  61.4864779  70.9504128  23.7430000  62.0519066
  45.6259298  73.5569096  10.6792355  46.1886263  74.3228865  10.5657542
  45.2953005  73.3703089   9.8005438  15.6976032  55.5608797   5.9685409
  16.0430169  54.6690607   5.9288442  15.0057554  55.5206013   6.6288102
  69.1061211   0.9541591  59.8659992  69.1934776   1.6576508  60.5091953
  69.5588350   0.2097045  60.2623177  19.2942572   6.8712115  30.4761863
  19.3991935   6.4279431  29.6343231  20.1221061   7.3331648  30.6084681
  22.3226810  29.6809745  56.2422085  22.6107049  30.5613136  56.0008049
  23.0352187  29.1091347  55.9566879  19.8506391   3.1824535  26.1632133
  19.9450946   3.7431264  25.3931761  20.6024623   2.5913852  26.1227965
  15.5518186   9.3404770  40.6429720  14.7256088   9.5213473  40.1947594
  15.2957952   9.1269487  41.5402412  72.2431135  71.8979740  12.0332682
  71.2878799  71.9455719  11.9946837  72.5260162  72.0247650  11.1276615
  79.6846771  19.8638988  28.7194300  78.9021492  20.2621055  29.1006279
  79.3492079  19.1582572  28.1664729  72.9068565  14.3746722  48.4164429
  73.5922146  14.3068469  47.7516747  72.8012323  15.3156745  48.5564137
  25.0356412  22.3687434  22.7579045  25.1793480  22.2984457  23.7016416
  24.4416451  21.6470313  22.5516677  16.4274704  22.3368096  42.5257063
  16.7712820  22.8421593  43.2623529  16.4578843  22.9422641  41.7849398
   8.5542822   1.8708739  30.6824017   9.0671939   2.6693007  30.8075738
   8.2231057   1.9368967  29.7867489  12.4136186  19.4791603  19.8457587
  12.1868992  20.2274776  20.3978920  12.1746337  18.7142003  20.3691626
  22.7580523   3.3557504  37.1541548  21.9512773   3.8050038  36.9021273
  22.5394511   2.4251564  37.1047592   4.8770875   9.0905750  41.9443560
   4.6601957   8.6629051  41.1159325   4.1689348   8.8381267  42.5368261
  55.4771566  58.2375050  19.6295679  55.4535437  58.7197781  20.4560590
  56.3691330  57.8940630  19.5780671   8.8544917  63.5300446   2.1958682
   9.6460831  63.8230658   2.6472592   8.9593780  62.5816631   2.1196745
  47.9917622  15.7910979  21.7723370  48.0560064  15.7301354  20.8192444
  47.0675707  15.9766245  21.9387174  16.2685609  18.0943751  47.0199776
  16.3687980  17.3186314  46.4682484  15.7699025  17.7870452  47.7770281
  31.0321379   6.6378736  27.7898097  31.6348886   7.1368003  28.3411694
  31.6007590   6.0963470  27.2424078  69.1385555  71.3690615  37.8901410
  69.7557020  71.0391140  37.2370768  69.0181732  70.6383562  38.4966111
  28.7663436   8.7082618  35.9837627  28.7544966   8.3767104  36.8816304
  29.4880700   9.3368757  35.9700704  16.2473011  20.3838491  49.7196722
  15.3084779  20.2533340  49.8531151  16.5829062  19.5122159  49.5102501
  70.1627827  61.2787867  29.7557616  70.6083202  62.0515919  30.1028919
  69.6354103  60.9576273  30.4871798  16.7206299  21.3909578  60.6818724
  17.5841892  21.6508603  61.0027218  16.9043028  20.7921243  59.9580669
  20.3854799  24.1674519  66.2329578  19.4690633  23.9841676  66.0260296
  20.4327798  25.1220155  66.2859106  76.5664148  11.9286525  33.0211687
  76.8483019  12.1152306  32.1256471  76.1943817  11.0478389  32.9765558
  63.5778904  17.0420671  29.1682220  64.1004467  16.3423359  29.5600724
  64.1010189  17.8330863  29.2980623  10.9471881  20.1114678  51.1374235
  11.3221431  19.2689002  51.3937807  10.3613067  20.3421879  51.8583584
  13.2063067  43.0155993  26.2299871  12.3779094  43.2312202  25.8016205
  13.3338583  43.7152243  26.8706799  21.6875935   8.6665994  29.0293908
  21.0210347   9.3385464  29.1722870  21.8059254   8.6447394  28.0797839
   8.0110729  28.1793642   9.6529007   7.9395431  27.3211432   9.2350864
   7.6235896  28.0568767  10.5195522  32.7671623  35.8409381  34.9861622
  32.0651984  35.7771373  35.6337786  32.3703241  36.3025904  34.2474937
   5.4311579  25.0688720  15.1000655   6.2032044  25.2398133  14.5606625
   5.4605782  24.1271114  15.2687466  11.8470132  27.1219254  58.5468769
  12.1715808  26.2347531  58.7011814  11.0077345  27.1531677  59.0060759
   9.3766415  35.6424737  45.1338959   8.7098294  35.0072813  44.8728895
  10.1156473  35.4669619  44.5514059  19.3327427  40.5310202  16.0324812
  20.2855420  40.5837774  16.1074674  19.1224658  41.0684776  15.2688336
   8.7873894  14.5839250  25.3382492   8.8488120  15.3876996  25.8543968
   9.1228181  13.9004862  25.9184480  22.6149678  34.9072099  18.5084271
  22.5897622  34.0458512  18.0917025  23.5199857  35.0034404  18.8049304
  40.2649212  15.1815891  20.4498124  41.0692787  14.7636151  20.1423383
  40.5333376  16.0675430  20.6932688  47.8979301  50.2618980   4.3388438
  47.5111294  50.6178617   3.5389012  47.2759676  49.5948029   4.6293318
   8.7688577  25.8751869  16.2725914   9.3680626  26.6214871  16.2576985
   8.9920652  25.4048061  17.0758045   6.9948095  11.0610414  13.3126247
   6.6163200  11.6928256  13.9240372   6.9108504  10.2175546  13.7572742
  18.3857763  40.2236557  32.0401287  17.8411341  40.1122856  32.8193545
  18.9673448  40.9524632  32.2565651  11.4194441  36.1904788  10.1771843
  11.5218854  35.2642679  10.3959846  12.2758889  36.4530396   9.8398501
  72.3421288  25.0426149  23.5804057  72.6192236  25.1574135  22.6714110
  71.4129829  25.2726388  23.5784340  29.4189787  39.3351173  31.2007952
  29.7266769  39.0683126  30.3345561  29.4808745  40.2902842  31.1932492
  71.3243389  18.7319672  43.0696249  71.9179058  19.4767213  43.1658220
  71.8279934  17.9818881  43.3857632  10.9714103  57.7714252  20.0333047
  10.8819377  57.0857525  20.6951785  10.6943464  57.3544264  19.2174745
  78.8377714   8.7396157  59.5962572  79.5601702   8.3491886  59.1043806
  78.2208443   9.0310925  58.9249372  76.2821817  47.4732304  65.1548815
  77.1204758  47.5846004  65.6033230  76.5197277  47.2351503  64.2587137
  78.5252714   0.5903914  58.8253212  77.9591751   0.5653018  59.5967722
  79.1127872   1.3293767  58.9832973   8.9916909  17.1437681  30.9004974
   8.5838634  16.9026935  31.7322373   9.7750276  17.6335692  31.1509180
  19.2225432  22.2780132  28.7643385  19.8122597  21.6143608  29.1221547
  19.3321478  23.0327392  29.3427920  18.3113098  22.9634333  64.1380358
  18.1879795  23.9112949  64.0872622  17.4371743  22.6002121  63.9959431
  14.9630201   8.4613645  43.0936718  15.4252756   7.6372069  43.2463694
  14.4471514   8.5974443  43.8883972  29.7338510   6.0067272  46.1697483
  30.6895685   5.9770966  46.1255264  29.4494605   5.9304905  45.2589560
  10.5392730  24.0796566  20.5475259   9.6904093  24.1422486  20.9854126
  10.3609288  24.3333983  19.6419644  73.3992863  33.6273527  24.6238446
  74.0609837  33.5880566  23.9333057  73.0598402  32.7342153  24.6814013
   4.8698932   3.0628961  44.8195505   5.6021678   3.4766087  44.3625546
   5.0335258   2.1237460  44.7332191  26.6378284  11.1900389  52.3599958
  27.4859452  11.6329217  52.3320436  25.9968281  11.8933749  52.2566986
  56.2981606  67.5301504   8.1155241  56.7486095  67.0326853   8.7980598
  55.4592705  67.0821857   8.0067652  13.6123037  32.0687294  41.9937897
  14.3531454  32.1264768  41.3904238  12.8418756  32.1943879  41.4398193
  33.1490254  19.8282945  15.5967081  32.2094393  19.8212862  15.4140663
  33.3202958  18.9789140  16.0034645   7.9010940  23.7367058  46.7320633
   7.0335090  23.4993482  46.4046669   8.1662750  22.9909062  47.2702932
  71.8460846  26.5847468   8.0164760  72.7477407  26.3039947   8.1727648
  71.6685915  27.2183132   8.7116897  80.7364368  17.2086632  38.8050246
  79.8569441  17.0866346  38.4474778  80.5991268  17.3209238  39.7456503
   0.4397497  27.4086475  48.4718132   0.8263311  27.2115064  47.6186275
  -0.5005036  27.4648118  48.3015156  78.4758663  14.1412282  61.0769653
  78.1682253  13.2656538  60.8425379  77.6945877  14.5916855  61.3977766
  12.4013412  23.8155341  47.0726204  12.1522486  23.9881849  46.1646700
  13.2077658  24.3154860  47.1989536  17.2527540  59.6031046  43.0651093
  16.8370259  59.7340822  42.2129059  17.9290545  58.9453745  42.9031181
   6.6267645  22.3219585  26.2732649   6.1619860  22.4472380  27.1006227
   7.4655724  21.9361329  26.5257978  67.6368809  71.1952019  26.5540075
  68.0351448  72.0654488  26.5711451  68.3798790  70.5921936  26.5303349
  77.2781134  27.4507046  25.7156897  77.5446033  27.8413987  26.5478992
  78.0576468  27.5089049  25.1632595  16.4308667  28.9248919  42.5746012
  16.5177536  29.2496061  41.6783619  17.0074618  28.1616521  42.6097775
  29.8443341  18.9928544  26.8395495  30.0191712  19.8984385  27.0956349
  30.5852532  18.4977961  27.1891022   8.6558384  43.1912518  55.6835938
   7.7493441  43.0076838  55.4370117   9.0547860  43.5405445  54.8866796
  30.7101154  13.4830499  21.2339377  30.8116579  12.5313950  21.2505341
  29.7716951  13.6259747  21.3571072  12.6334536  32.8035259  47.6531982
  12.3851621  32.5000978  46.7799759  12.2884071  33.6949205  47.7041101
   7.1747124  18.8484740  29.8578548   6.3499117  18.3630085  29.8418069
   7.8236133  18.2085729  30.1505756   1.5845513  72.8959036  20.0036645
   2.3211104  72.6101208  19.4632578   1.6576144  73.8501167  20.0228643
  75.1557875  17.7714133  46.5889645  74.4695139  17.7176309  47.2540712
  75.6925154  18.5167909  46.8583488  19.5161021  18.5838008  26.5100384
  20.4168081  18.4023547  26.2416410  19.4336224  19.5351708  26.4442706
  40.9878588   8.5727811  41.5791988  41.3393354   7.6831561  41.6147089
  40.2520561   8.5642153  42.1913767  10.5048645  33.2304215  19.0918112
  11.1733675  33.2516146  18.4070587  10.1259708  32.3536110  19.0295792
  27.6971173   4.7534406  27.9458189  26.9769621   4.5306560  27.3559237
  27.9832411   3.9126131  28.3027124  45.3306770  72.3602962  58.0827522
  46.2364435  72.2075033  58.3519602  45.3199005  72.1512127  57.1487284
  79.2575932  53.5499334  36.4528823  78.4965897  54.0073252  36.8105054
  78.8865137  52.8828955  35.8753085   6.4857632  17.8116465  48.8397646
   6.9005859  18.2141781  49.6027327   7.2011620  17.3674071  48.3846951
  19.0072894  27.4173880  40.4730034  18.3699667  28.0125737  40.0782824
  19.2611277  26.8312240  39.7601175  67.2759962   4.9498761  42.7453804
  67.5341368   5.2961111  43.5996151  68.0206680   4.4160816  42.4683237
  22.6580334  25.5363679  48.9055252  23.3116055  24.9262452  48.5637236
  22.1849561  25.8395004  48.1305838  78.1579542  20.3136086  24.6780276
  78.3319044  21.1307526  25.1451969  78.9636135  20.1398349  24.1912532
  19.0035355  11.0654438  27.4480486  19.5979178  10.3750229  27.1543503
  19.4249630  11.8786287  27.1699095  12.0815730  59.7566462  14.2324746
  12.6948941  60.3316784  14.6900821  11.9465005  59.0238667  14.8333275
  20.4008484  37.1584272  10.1950884  20.2099705  38.0962729  10.2106786
  19.5405245  36.7388248  10.1980054   7.8293341  43.5385036  30.6337690
   8.1659728  42.6485491  30.5294490   7.9224819  43.9329910  29.7666264
  22.0477581  21.8981910  34.5704031  22.1190739  21.6455102  35.4908919
  22.8778386  22.3336530  34.3765664  13.7388003  31.2272382   4.6226948
  13.5872400  30.2908087   4.4947863  13.7986851  31.3326764   5.5721831
   4.8224056  24.6481371  32.5559211   4.1105878  25.0306940  32.0428944
   4.4009775  24.3412876  33.3587146   4.9718738  31.1927032  34.4110775
   5.7889348  31.6172266  34.6726537   4.3129042  31.5566707  35.0022793
  27.2788405  14.8394752  38.4216619  26.5111279  14.4291413  38.0235744
  27.9966617  14.2335296  38.2378316   8.4900457  12.5636399  19.6637499
   9.2396307  12.0708954  19.9977505   7.7447623  11.9745040  19.7808146
  80.6875801  17.6459479  62.7688885  81.5251064  18.0412710  62.5269985
  80.8783722  16.7114711  62.8500366  17.7436686  14.7984397  52.1074963
  17.2762287  14.6804070  51.2805748  17.7023876  15.7402039  52.2736502
   9.8601454  49.3541813  53.3855629   9.2623597  49.6070337  54.0890884
  10.1131189  50.1820612  52.9770947  20.9110665  20.3315663  32.6567864
  21.2967849  20.7904983  33.4030008  19.9677980  20.3663540  32.8157353
   7.2681642  37.3157334  27.2610593   6.5820348  37.8017282  26.8035984
   7.7965367  36.9314671  26.5614915   2.3898657  19.8401999  50.4592466
   2.3047400  19.3102503  51.2517977   3.0304891  19.3708086  49.9249220
  77.2576237  23.1338334  51.8386984  76.7567778  22.7829981  52.5751066
  76.7899323  23.9307833  51.5889692   2.7632603  11.3986325  33.6131501
   2.5521207  10.4812312  33.7864280   3.7058660  11.4607739  33.7676311
  66.1848545   6.2568706  37.9034615  65.6808376   6.8754345  38.4322119
  66.3715553   5.5302298  38.4979105  11.0013223  24.0750289  31.4298558
  11.5218389  23.3775139  31.0314012  10.4987979  23.6364985  32.1164346
  22.6217031  26.2590337  37.6653838  22.6581740  25.4201055  38.1248403
  23.2842064  26.7979074  38.0977464  20.6010652  24.1513824  30.4845834
  20.3514194  24.3781900  31.3803887  21.5143490  24.4288826  30.4129124
   3.4514695   9.7833097  36.9957447   3.1250834  10.5523920  37.4628806
   4.1621134  10.1187563  36.4492154  80.7210064  24.1273260  49.5419264
  81.0021496  23.3095002  49.9522257  81.5349770  24.5502019  49.2683125
  81.0240269  10.2650225  48.9878368  80.2053547   9.8512995  48.7142467
  81.6474438  10.0428641  48.2962990  17.0817637   8.2574308  27.3583889
  17.9231119   8.6870879  27.5125289  16.4915454   8.6485052  28.0025434
  67.2930193   3.0218226  45.9335184  66.3559151   3.1801412  45.8194733
  67.5524282   2.5424212  45.1466799   1.9190103  26.1421442  31.6854262
   2.0505171  27.0051146  32.0781302   1.2027448  26.2687778  31.0632038
  25.5458593  30.1277232  30.2495575  26.3422513  29.8987699  30.7286954
  24.9183607  29.4453573  30.4879951  14.0514016  44.7478533  39.3266702
  13.1903458  44.8714018  38.9272332  14.6602285  45.1652718  38.7173057
  17.9553545  31.7306089  28.4861231  17.7163446  32.6248288  28.7300086
  17.1638584  31.3722181  28.0844736   4.3361232  17.2842383  30.3881407
   3.8391554  16.6004610  30.8372545   3.8871813  18.0974805  30.6190515
  20.5952072  31.3449049  21.9075251  21.4762568  30.9989500  21.7650437
  20.7201457  32.0771551  22.5112057  20.0640321  23.7470007  52.9797506
  19.9491405  23.6506724  53.9251375  20.9246588  24.1547585  52.8833866
  53.1314373  77.1280050  12.0338035  53.6488819  76.4640236  11.5781617
  52.2584867  77.0581532  11.6473925  45.5183363  13.2815456   1.4400822
  45.8088017  13.6464274   2.2759780  45.8813143  12.3959458   1.4262590
  81.4982414  34.2481518  18.7780607  81.3391972  34.1179085  17.8431952
  81.2691021  35.1642370  18.9346480  77.6374531  25.8060098  21.5090227
  77.1257210  26.2660098  20.8436203  77.4772501  24.8783994  21.3355041
  13.9332175  29.3479443  49.6599436  14.7726727  29.8035288  49.5967722
  13.8438845  29.1382313  50.5896044   7.3195884  77.3031310  26.2991595
   6.5239665  77.1337538  26.8036675   8.0290076  76.9816306  26.8555689
  12.5164402  20.9958959  46.2205029  12.6727700  21.9060755  46.4722300
  11.9088519  20.6653690  46.8821859   6.0335773  34.8530245  25.8150506
   6.2410629  35.7788110  25.9419322   6.5433007  34.5964718  25.0465488
   4.7534573  30.8655596  25.8284044   4.7491086  30.0377488  26.3089705
   4.2493227  31.4647412  26.3789129  15.0449085  39.6061158  38.7257576
  14.8593211  39.5199108  37.7906847  15.1100314  40.5499887  38.8709950
  11.4405024  12.3355150  44.2696524  12.3363328  12.4786782  43.9643288
  11.5241897  12.2320652  45.2175617  80.1257992  11.2778270  33.4262657
  79.9844980  10.6514215  32.7164197  79.4413137  11.9358277  33.3048391
  16.1771488   0.9786996  45.7505608  16.7796910   1.0572071  45.0109577
  16.0577357   0.0356751  45.8631563   6.7068934  42.3779774  50.8461142
   7.5347257  42.8078318  50.6312847   6.2942070  42.2154760  49.9978733
  69.0969658  39.0431929  45.4409647  69.6670914  39.8047590  45.3350925
  68.8834715  39.0316868  46.3739824  73.2610893  38.4447598  26.4539027
  72.5174570  37.8474474  26.5342546  73.9975119  37.9622984  26.8295908
   2.1649337  62.1789312  22.4831986   1.2903881  62.5163889  22.6769042
   2.0458671  61.2318325  22.4120522  22.7805138   6.1618316  26.0150099
  22.7459216   7.0753157  26.2988806  21.9065309   5.9860831  25.6664395
   3.4313083  35.0576234  25.2730083   2.7270827  34.4593859  25.5228233
   4.1886693  34.7597218  25.7768846  11.9574642  19.5721376  59.7664452
  11.6168284  18.9749694  59.1004229  12.8148830  19.8377419  59.4339991
  25.9332204  10.3687656  64.5966053  25.9062958   9.6338540  63.9838934
  25.0279593  10.4681885  64.8913097  12.0721316   6.2161809  60.9370613
  12.1828377   5.5035526  61.5664530  11.5945280   6.8904567  61.4202547
  30.7835865  57.8936291   5.0221229  31.1400175  57.2273922   4.4344848
  31.5059519  58.5075808   5.1543415  19.8733699  33.6308813  34.9356246
  19.0231490  33.8311577  35.3270912  20.4376173  33.4248376  35.6808758
  14.9947333  27.1661472  36.4544010  14.7720075  27.4265790  37.3481584
  15.9271324  26.9530201  36.4923453  15.5099785  18.9151335  42.2794342
  15.2768087  19.8191476  42.4906731  14.6846318  18.4342587  42.3410273
  17.7348685  50.6062555  56.0638142  17.0344770  50.2955389  55.4901075
  17.5133264  51.5209293  56.2385130  78.8785410  31.0971141  40.8745766
  78.8337469  31.7705512  40.1958179  78.0011654  31.0838032  41.2570333
   8.6209399  31.2890482  41.3662672   8.1092250  30.5547404  41.7056370
   8.2705528  31.4396834  40.4883289  19.7064328  21.5522981  11.7676508
  20.0960517  22.0827079  12.4626994  19.1593230  20.9169102  12.2293723
  74.8452425  19.1964114  53.5178185  75.5718946  18.7439239  53.0894995
  74.0649796  18.8830256  53.0604172   3.3327124  16.8686748  65.2064037
   3.3390039  17.7534032  64.8410988   2.9082432  16.3351464  64.5345354
  11.2770915  31.0943437  40.5354548  10.3946912  31.3050461  40.8407497
  11.3174713  30.1383376  40.5610132   4.1456920  42.1232891  52.1275091
   5.0107920  41.7416525  51.9785452   3.6536011  41.4342690  52.5739717
  10.8452582  19.3951917  44.1703320  11.2776399  20.0244951  44.7476149
  10.2043378  18.9573884  44.7304916  22.3050046  13.7447321  39.5479941
  23.0327725  13.3017421  39.9842787  22.6940012  14.5374513  39.1785240
  20.9153461  15.0742781  41.6921043  20.5806065  14.2891204  42.1253586
  21.4799452  14.7407854  40.9947968  16.5470588  24.7693253  40.8090639
  15.7037437  25.2171111  40.7416916  17.0372069  25.0650048  40.0418854
  12.4486411   5.6026703  56.1609077  11.6479695   5.1545793  55.8881950
  12.1539843   6.2524676  56.7990065  64.8481655  -0.0026370  29.4078732
  64.0360308  -0.5092633  29.4075942  64.6128607   0.8268624  29.8235583
  29.6988821  14.9179912  64.0537500  29.2886090  15.7827830  64.0470886
  29.4804406  14.5426834  63.2007170  29.9424124  24.0608525  33.1376171
  29.4356728  24.3366957  32.3738408  29.6955442  24.6795344  33.8250160
  13.2604885  15.4139340  27.4034905  13.7276208  14.7374451  26.9132018
  13.9493322  15.9960616  27.7241993  13.1158316  31.0217071  37.0676780
  12.1873331  31.0693121  37.2953987  13.1368268  30.5233860  36.2506914
  78.5983372  29.2777586  27.5865722  79.0274715  30.0221038  27.1646404
  78.2314014  29.6387553  28.3935857  23.4195948  28.4934688  41.5946341
  23.6669755  29.2562890  42.1172619  22.6083541  28.1813574  41.9955111
  10.0683498  16.0035992  60.6410360   9.8517764  15.5783165  61.4707756
  10.0333238  16.9401574  60.8356237  45.0328112  69.3229008  21.7610955
  44.1763163  68.9411068  21.5690422  44.8335886  70.1443624  22.2102547
  18.6088669  27.6564050  32.6508474  18.8759577  27.3322177  33.5109639
  17.9633665  27.0193768  32.3446465  78.0089426  16.3349831  40.9449005
  78.9617395  16.4083624  40.9999228  77.8142262  15.4694557  41.3043165
   0.2889854  18.1273949  45.4379511  -0.5800331  18.2856786  45.8067131
   0.3802216  18.7854171  44.7488117  27.7353239  12.5458312  36.0692954
  28.5469866  13.0100834  36.2740040  27.7783179  12.3930693  35.1253414
   3.8049519  31.3779187  22.1004915   4.1935310  31.2805176  22.9698324
   4.1797370  32.1903348  21.7602754  75.7651186   7.4181914   3.9078933
  75.4488659   8.2143784   4.3348616  75.9668303   6.8231237   4.6300000
   1.4684530  20.0021148  58.4246731   0.6542566  19.7860301  57.9701138
   1.1879700  20.2984977  59.2905331  27.2400999  12.8324270  46.9885349
  26.8929243  13.6520195  46.6364384  28.1378722  12.7914512  46.6590548
  46.5856457  54.5342779   0.9051021  46.7074251  54.5633173   1.8540794
  46.7377472  53.6184359   0.6720205  18.6371303  16.5649486  35.6002021
  19.1172624  16.6262281  36.4260054  19.2764938  16.8130124  34.9324369
  79.4203472  61.4839745  57.1862268  79.4884062  60.7980013  56.5221167
  80.3220177  61.7741776  57.3240948   1.1085349  53.4531021  43.5848999
   1.4035125  53.0883169  44.4192553   1.3363349  52.7856064  42.9377556
  33.4470057  22.1148634  13.6183012  33.3652711  21.1632538  13.5551429
  32.9125023  22.4494839  12.8981853  17.2508931  32.9073620  47.7519846
  17.0067692  33.1032610  46.8474102  18.1708682  33.1645989  47.8128624
  11.7808843  39.0341187  52.6574373  11.5527892  39.3887591  51.7981195
  10.9381127  38.8795209  53.0841351  23.0063248  43.4137201  62.6335955
  23.2730436  44.3328524  62.6505566  23.3717966  43.0434132  63.4370470
  11.0963631  29.3393731  51.6355705  11.1358476  29.6038389  50.7164764
  10.5097246  28.5830379  51.6421795  18.7006700  18.1462014  21.6283441
  18.7607181  18.1888294  22.5827074  18.8423777  17.2226584  21.4204550
  20.7881594  17.0038509  47.6750851  21.1999154  16.7656755  46.8444490
  21.4266968  17.5732672  48.1043482  28.0725694   7.3727494  47.8810835
  27.7534890   8.2364595  47.6195002  28.8943219   7.2657984  47.4020052
  16.6108418  44.3640757  28.1362963  16.3616478  45.2855778  28.0657697
  17.1321940  44.1961908  27.3512888  45.4245663  22.9919386  15.3882992
  45.3585672  23.4226966  14.5360541  45.9722853  23.5776711  15.9109426
  12.9215050  22.8157020  17.7395046  13.3428001  23.4757042  17.1889257
  13.5557771  22.6441216  18.4355593  22.7132654  29.6149564  24.1231894
  22.9568911  30.4305267  23.6853242  22.6894808  29.8402596  25.0531912
   4.5704791  29.2309809  32.8573895   5.2509820  28.6065578  33.1088710
   4.6925449  29.9707913  33.4523797  32.4550295  12.6843238  43.7519693
  31.9412255  13.0525017  43.0331659  32.1158528  11.7955470  43.8581228
   1.2092157  24.1395164  15.6388521   1.6987500  24.6412015  16.2906957
   1.7531998  24.1740775  14.8520100   1.0473266  30.3740525  49.4492531
   1.1426818  30.0269079  48.5623312   1.7636472  31.0026312  49.5387316
  10.8503854  30.3312445  49.0806293  11.1996484  31.2021232  48.8913679
  10.0599813  30.2684450  48.5443926  20.3023028  31.6462088  25.2162647
  20.5689549  31.0075140  25.8774710  19.6940362  31.1679077  24.6528196
  36.0365629   9.7043139  47.2129154  35.8632278  10.0615919  46.3419771
  36.9043899   9.3070042  47.1404505   8.3536541  16.0300088  47.9085588
   8.3057570  15.1115656  48.1738853   8.1139028  16.0244286  46.9818878
   8.1907725  24.4092584  25.1418924   7.9734379  24.0163732  24.2965293
   7.9134524  23.7585545  25.7868028  16.8924272  38.1196833  64.8865795
  17.0879364  38.8701773  65.4476166  16.2886643  37.5855994  65.4027748
  21.2706542  38.3951712  14.3381262  20.9705853  38.5639548  15.2312684
  20.8251548  37.5868130  14.0845203  51.1280966  41.8683815   4.4409895
  52.0454311  42.0864105   4.2760706  50.8668137  41.3437557   3.6842009
  25.5158901  37.7797937  13.0076408  25.9484363  37.6649547  12.1615028
  26.2317014  37.9386544  13.6229527  30.6267500  35.4079819  36.7304873
  30.5648422  36.2319946  37.2136045  29.8600221  34.9080062  37.0104575
  33.0912685  27.5112057  18.8562787  32.2474766  27.4545979  18.4079027
  33.3272648  26.6015887  19.0383124  24.4519305  51.7377853  28.8493919
  25.3087664  52.1373653  28.6997175  24.6173501  50.7956886  28.8130331
  24.1636825  15.0907552  30.8685398  24.8978043  15.6491864  30.6127024
  24.5319939  14.2076135  30.8938313   8.4736449  47.1828842   8.4470278
   8.1423748  46.6269732   9.1523302   8.0914885  46.8131924   7.6510912
  12.4921036  31.1649227  20.9471393  12.4435306  31.7383409  21.7120337
  11.8121779  30.5079913  21.0967159  25.0311923  37.7422047  17.0506406
  25.0190449  38.6671638  16.8046105  24.1382504  37.4389648  16.8865311
  18.5318112  49.2479658  31.5530467  19.0500319  48.6538076  31.0102272
  18.7856960  50.1230860  31.2598944  16.3029647  52.7164888  32.5273967
  15.8317780  53.4894085  32.2162604  16.8766987  53.0477428  33.2182884
  75.2412653  30.4393935  45.3083038  74.3352556  30.1846719  45.1336718
  75.2120018  30.8515930  46.1717081   8.6346239  69.3210554  45.4496813
   8.7070990  70.2541828  45.2490520   8.7994254  68.8830328  44.6146917
  70.6311178  39.2773151  14.8378921  70.3894377  39.5717907  13.9597654
  70.9766626  38.3942032  14.7077239  10.6264377  43.2249832  35.8563733
   9.8046726  43.4808064  36.2752867  10.5151248  43.4737921  34.9388027
  14.3932509  29.8725438  32.7340627  13.9057970  29.4965577  32.0010877
  15.3127503  29.7604847  32.4928284  17.4050641  36.8314886  30.4787326
  18.0547476  37.4870253  30.2249336  17.5584936  36.6914630  31.4131236
  20.9357667  28.9889693  38.2278252  21.6099524  28.3969784  38.5613728
  20.3475428  28.4240294  37.7267623  37.1791792  42.0804024  38.8816953
  37.3286319  43.0246115  38.9302850  37.6724100  41.7991829  38.1110644
  10.3350437  25.4178762  49.1617823   9.9859339  24.5687962  49.4327354
  10.3181338  25.3895664  48.2051468   6.9544566  41.2886333  40.7645226
   6.7140025  40.4515982  40.3673029   6.6200501  41.2337685  41.6597319
  30.7457519  49.4374466  32.3284531  29.9191546  49.4731903  32.8097963
  30.4912972  49.5179796  31.4092135  30.1349497  37.9390168  38.4064174
  30.9532046  38.2181525  38.8172388  29.5955706  37.6285005  39.1336608
  23.3748412  28.6491442  31.4331150  22.9460549  29.2613792  32.0310616
  22.6620007  28.2941175  30.9020352  23.7379289  35.4070139  33.8298893
  24.3331027  35.7815719  33.1805015  22.9024982  35.3249860  33.3699322
   9.5755368  57.5679541  30.1939273   9.0593290  57.7615929  30.9764004
   9.0662414  57.9386520  29.4732094  70.4072809  40.5448914  40.1746702
  70.0745726  41.0332870  39.4216728  71.0149908  39.9085331  39.7978830
  39.7090912  63.1953478  16.8735588  39.8449349  62.4086189  16.3455164
  40.4106569  63.7883997  16.6046262  44.3581533  63.4209108  37.3532748
  43.8498497  64.2036867  37.1408534  43.7086868  62.7194166  37.4016213
  33.0990887  53.5074472  17.1398973  34.0429473  53.6303091  17.2412241
  32.7949214  54.3168068  16.7292273  42.1990919  53.7849903  30.6178045
  41.4239025  53.4344006  31.0564351  42.5119829  54.4766092  31.2008929
  20.8884907  41.5703869   6.2390780  20.2610421  40.8523130   6.3221943
  21.7200494  41.1400318   6.0402334  76.8305111   0.6873279  14.3393314
  76.0982132   0.5657786  14.9436498  76.4647865   1.2028019  13.6204672
  76.9744253  -0.2348171  39.1992784  77.6814318  -0.2101553  39.8440766
  76.7604065   0.6850037  39.0432119  23.7655449  27.0563531  24.3930316
  23.2449794  27.8435969  24.2333746  24.5546126  27.3756814  24.8307896
  35.0239801  46.0767555  34.6487522  34.2352509  45.7890558  35.1084971
  35.6378436  45.3490257  34.7478151   9.9277288  27.5671339  38.0816245
   9.4025970  27.5373030  38.8813591   9.3003702  27.4054861  37.3769808
  47.3857403  59.4626760  19.7964883  47.7402353  58.7886810  20.3763962
  46.5632725  59.0934801  19.4748187  30.6456757  58.4129810  22.7743292
  30.9123755  58.1069183  23.6411786  29.6948957  58.3028412  22.7634883
  22.3708534  60.2244711  28.0462527  21.4863324  60.5878735  28.0039024
  22.8509617  60.6817198  27.3558545  47.6286793  63.0561876  23.9440608
  47.7019453  62.1053076  24.0258455  46.6950512  63.2132149  23.8029218
  35.1340771  69.3677664  50.6152344  35.8837700  69.9283028  50.8152103
  34.3983078  69.9738359  50.5283022  23.8604522  53.8503218  53.6148024
  23.1859899  54.5076275  53.4436893  24.0953660  53.5171270  52.7487612
  19.1749001  63.7627363  40.0846434  18.4932780  63.9730406  39.4463682
  19.3598533  62.8346968  39.9405432  20.1684594  59.1186810  44.9707460
  20.0098586  58.4690475  44.2858696  20.8987951  58.7610102  45.4756308
  51.5737343   3.5540664   8.0608833  50.8485365   2.9395992   7.9479498
  52.0876169   3.1883550   8.7808913  76.3737059  47.3036432   4.0397176
  75.6071472  46.8775082   4.4231606  76.3026094  47.1256733   3.1018990
  27.8067160  69.9287176  40.1996517  27.7846003  70.5153084  39.4435787
  28.2073021  69.1252136  39.8677707  23.3548903  41.7535305  33.5703850
  22.9464936  40.9169102  33.7929130  23.3509898  42.2475338  34.3902469
  30.9041786  36.4042759  17.8693461  30.1450562  36.3988733  18.4523857
  30.8090019  37.2088885  17.3596668  40.7569265  62.5123072  23.1064558
  41.1770821  63.3512735  23.2957578  40.2617359  62.3080397  23.8997364
  40.4104280  75.9091997  33.0275989  39.6243453  76.2207747  32.5790191
  40.0962353  75.2153540  33.6073375  32.4855447  48.3429909  35.9100199
  32.9041648  47.8912783  36.6427851  31.7202163  47.8064299  35.7036114
  21.4840269  70.2691078  45.3528309  21.2172294  71.1799240  45.2284765
  22.3481107  70.3261900  45.7606697  36.7757010  57.2454548  43.8856792
  36.8273783  57.4594021  42.9541302  35.8376169  57.2239113  44.0747976
  23.7202072  71.2750292  43.0495882  23.5599589  70.7497454  43.8335705
  24.6405888  71.5294886  43.1157827  43.9005661  67.2584438  59.8049164
  44.7473812  67.4641180  60.2009439  44.0764618  66.5051699  59.2411137
  40.0748301  65.5104923  36.3866282  40.4105425  65.8590746  35.5607820
  39.1741872  65.8312321  36.4335012  51.0298061   3.8878524  58.0714417
  50.0940752   4.0852055  58.1126404  51.0707664   2.9879543  57.7478123
  63.5449409  73.0456161  51.1481047  64.0688133  72.6426411  50.4557133
  62.7450848  72.5207615  51.1794996  31.0382962  61.5087461  63.8636112
  30.9935284  60.8929014  64.5950222  31.5347862  61.0444975  63.1896639
  81.5225792  15.6728530  44.0387821  82.3103714  15.2917659  43.6509800
  81.8482113  16.3768947  44.5996046  63.8501644  67.1730995  46.1311102
  64.5476675  67.6440811  46.5870714  63.2122278  66.9690609  46.8149471
  69.2241287  69.0727997  29.3795419  68.2878017  69.1970110  29.5347714
  69.2917871  68.9135981  28.4381032  13.9958405  30.2052736  55.3158426
  14.1199279  31.1520553  55.3824568  13.1079304  30.1036191  54.9730396
  54.1318893  64.9366045  51.6448641  54.4002771  64.9567318  52.5634480
  54.2059422  64.0158844  51.3938236  79.5503473  17.8974605   7.1940428
  79.6988392  17.2001874   7.8327847  79.7029591  18.7063134   7.6826113
  49.7306442  67.0168734  27.2686028  49.6630144  66.2451172  26.7064166
  50.6513500  67.2729254  27.2141385  50.2077436  66.0190964  38.8897991
  50.8512068  66.6757059  39.1563559  49.4967079  66.1091757  39.5242643
  22.0016360  70.0966930  55.2574110  21.9598722  69.9484873  56.2021494
  21.7843103  71.0227346  55.1504040  28.3268833  58.2027674  42.7685499
  29.0622449  58.4406281  42.2038364  28.7245369  57.7041292  43.4823179
  51.3598251  60.7126236  13.1033123  50.9130716  60.7432747  12.2573197
  50.8494139  61.2959242  13.6649811  76.7158508   9.1512984  52.4757910
  77.3102188   9.6794719  51.9428825  77.0720005   8.2643259  52.4241304
  53.7507915   8.9992911  63.3915472  53.7220383   9.5907170  62.6394701
  53.2422018   8.2366127  63.1160641  30.7564521  76.6242409  39.5133877
  30.8857512  76.0292482  40.2519655  30.2097225  76.1312866  38.9015770
  39.9665546  64.2517519  45.7308292  39.2616320  63.8777447  45.2022123
  39.7130060  64.0650320  46.6347551  16.5629542  72.5668621  51.5416718
  16.3578296  73.0016613  52.3693800  16.6132367  71.6375208  51.7653418
  73.7235212   8.8459301  14.4971859  74.6566629   9.0536898  14.4490242
  73.6858559   8.0256563  14.9890840  63.1608009  12.5513768  30.6130672
  62.2393847  12.7633655  30.7623577  63.3840609  13.0105150  29.8033881
  40.2301598  63.2551336  55.9182882  39.2829251  63.2145214  55.7866669
  40.5713797  63.6067295  55.0959873  66.5198898  68.3751869  53.4793615
  66.4565134  69.2799187  53.7854195  67.1486712  67.9649591  54.0731478
  59.4159937  70.3018284  37.3298383  59.0579081  69.4736338  37.0103073
  58.7850380  70.9620762  37.0431232  42.3719025  64.4386673  44.7948885
  42.1261597  64.0689182  43.9468765  41.5606594  64.4327497  45.3029060
  30.4018736  72.9797506  48.9474535  29.9374270  72.8839064  49.7789192
  31.1182070  73.5842609  49.1415405  62.3160505  58.4784937  35.2327394
  62.0621347  57.9448128  34.4797850  61.4905643  58.6774683  35.6745720
  61.4198112  32.6431751  60.9364367  62.0288897  33.2082272  61.4117956
  61.9797897  32.0019484  60.4988527  27.3068357  60.9261322  26.5777802
  27.1007252  60.0089121  26.3976288  28.1342363  60.8958101  27.0581174
  52.5477505  66.6503048  56.6416121  51.6530991  66.9445848  56.8125725
  52.8474283  66.2959576  57.4787903   5.9515929  68.8110161  34.0476346
   5.8638036  68.7675333  34.9998093   6.8934530  68.8920069  33.8973951
  53.8608265  73.2294416  54.7217178  53.2741833  72.5731897  54.3456650
  54.2022657  73.7068510  53.9655876   2.9529810   6.2678277  25.1248646
   3.5372093   6.7576450  24.5460820   3.2772687   6.4541286  26.0059762
   8.5603315  61.9016027  46.2786770   8.2463384  61.6874170  45.4001760
   9.2576510  61.2673330  46.4450502  68.7150431  64.4907761  34.1446590
  68.3163738  65.1548767  33.5822868  68.2099581  64.5300865  34.9568033
  38.5234499  64.9355698  40.8927965  38.1909418  65.1990938  40.0347567
  39.4363332  64.6962881  40.7327366   7.3281437  66.2301111  31.2498069
   7.9260641  66.6747427  30.6489515   6.4626551  66.5687275  31.0206771
  75.5619383   1.3878489  20.6798577  74.7095442   1.3880591  20.2443576
  75.6497383   0.5029215  21.0340142  41.1453724  11.7409086  21.5845323
  41.5347910  12.5063026  22.0073247  41.4233780  11.0013998  22.1249676
  64.9656820   9.2603916  61.3778830  65.7947063   9.6243805  61.6884708
  64.8325920   8.4775651  61.9123936  46.7115259  65.5976200  35.9550834
  46.3168573  64.7298813  35.8685040  47.6085711  65.4852057  35.6405950
  65.8861685  63.0106878  35.4157591  66.6948462  62.5731754  35.6819463
  65.2152586  62.3305178  35.4747701  37.0967174  73.1426191  29.8571825
  37.2588110  72.8521013  30.7547140  36.2566781  72.7466488  29.6252894
  35.7897401  60.5105591   7.6251405  35.3073931  61.3349962   7.6874459
  35.8424163  60.3342867   6.6857874  37.8292632  53.7117577  35.5572057
  37.3915029  54.2752266  36.1952496  37.3618245  52.8783321  35.6131911
  46.7075109  56.0719156  42.1329260  46.0970163  55.4805183  41.6927338
  46.6809750  55.8033991  43.0513096  67.5787592  74.2672396  51.2570858
  67.8344822  73.7827682  52.0420218  67.0691299  75.0070047  51.5876341
  65.2075434  61.8353987   2.7005765  65.2558517  61.3917732   3.5473895
  65.0674152  62.7564287   2.9203460  76.7860317  19.1791022  31.6716862
  75.9265184  19.0225279  31.2805915  76.6935492  18.8863933  32.5783277
   3.8155916   9.0382528  11.4592493   2.9715914   9.0682179  11.9098008
   4.4241247   8.6943799  12.1132147  80.2476597   2.7957317  58.8775206
  80.8218193   2.7048334  59.6379900  80.8346558   2.7265897  58.1245995
  57.3291874  61.8387318  11.5743005  57.9860210  62.3047590  12.0916176
  56.5739822  61.7636776  12.1576238  36.4008451  51.0268879  24.4739962
  36.4994216  50.2648306  23.9032197  36.8936872  51.7202187  24.0350962
  59.9961567   6.1265790  44.1073751  59.6515989   7.0076549  44.2530394
  59.8524952   5.6728876  44.9378920   3.8567331  10.7530081  23.3755136
   3.5985234  10.5762088  22.4709153   4.1653758   9.9092609  23.7057590
  43.5902739  60.2155399  35.3071904  43.8555479  59.3307352  35.5581570
  44.4093943  60.7092905  35.2686191  45.7943726  10.4562604  36.8828797
  45.1162434  10.7901883  37.4701262  46.5304613  10.2508807  37.4592710
  29.4378734  72.5173235  28.9397621  29.4934106  71.7591810  28.3580685
  29.7231984  73.2546425  28.4001541  37.3605585  70.3014708  57.0111513
  37.2169352  71.1283064  57.4715328  38.0147743  69.8438358  57.5391722
  64.1064548  62.6981640  26.3755131  64.8586941  62.4271917  26.9017696
  64.4417906  62.7354765  25.4797506  30.8323240  73.3870983  16.3755238
  31.6190886  73.8590193  16.6485155  31.0678959  72.9949331  15.5347252
  32.5840545  71.3241482  28.0598211  32.5737023  70.4759169  28.5032487
  33.2762313  71.8166018  28.5009718  34.5581436  77.1722364  50.4755163
  35.0673270  76.3619566  50.4552507  34.7479057  77.5529766  51.3329887
  66.9058704   7.9358661  42.7548790  65.9492064   7.9108477  42.7749014
  67.1559525   7.1491408  42.2703648  14.6294582  52.4804497  27.8612494
  15.4422498  52.6219940  27.3758984  14.9036825  52.0351982  28.6629891
  72.3490381  10.5270600  44.9924326  73.1257057  10.3425467  45.5206060
  72.5898218  11.2935221  44.4720554  64.0449953  14.0380967  40.3661156
  63.4964752  14.7371328  40.7220650  63.6547136  13.8369954  39.5155430
  49.7779179  74.4974661  46.2470627  50.0798988  73.7410831  45.7441473
  49.7805786  74.1973019  47.1559763  61.6786861  11.5706801  40.2322531
  61.6713047  12.4662662  40.5700445  61.3690424  11.6523671  39.3302083
  76.3818407  12.7235734  26.6230178  76.7070580  13.2911861  27.3217893
  76.2350655  13.3137453  25.8838391  50.1505852  68.1144905  42.8458023
  49.3393850  68.3114815  43.3141851  49.8946428  67.4733829  42.1826982
  27.4997663  75.8204317  31.2162280  27.8933740  75.7873106  32.0881271
  26.6405511  76.2183809  31.3562822  60.8212185  69.9376440   4.6334562
  61.1257744  69.9387836   5.5409110  60.8183670  70.8608389   4.3806115
  38.0388832  68.1032324  50.1664257  37.1817613  68.1568718  49.7437000
  38.0031657  68.7574911  50.8642054  47.8972054  67.7440357  53.7987185
  48.2278872  67.9897594  52.9347134  47.6728916  68.5763216  54.2149115
  65.3766346   0.2648083  37.9692173  66.2316656  -0.0818138  38.2241845
  65.1938391  -0.1461912  37.1242929  74.9299002   0.1123831  16.2766826
  75.0325251  -0.4951968  17.0091760  75.1316690   0.9713005  16.6478705
   4.6926248   8.5332435  16.2801278   4.5032531   7.6064384  16.4264214
   4.8335853   8.8902217  17.1570134  52.7440977  71.0337400  27.9009533
  53.2907152  71.3186741  28.6332488  52.2115183  71.7998695  27.6873231
  44.3928719   2.2102411  40.7092094  44.4259453   1.3147953  41.0458326
  44.0282202   2.1217661  39.8286223  37.1495724  57.7768517  41.1228848
  37.1714020  56.8509197  40.8812141  37.4782753  58.2342100  40.3489256
  81.7571354  69.4787502  16.6087759  81.0851669  70.1227903  16.8321633
  82.3470783  69.9440145  16.0157061  62.8831148   3.5680947  58.2224560
  62.8417826   4.3103999  58.8253736  63.7886238   3.2631302  58.2797527
   4.0142578  10.1022160  58.7639904   4.3113399  10.5140030  57.9525709
   3.4314618  10.7491910  59.1614866  51.8859053   4.1819689   0.1119970
  52.0629311   4.2770669   1.0478650  52.4642324   4.8192298  -0.3071264
  44.6478081  55.1991558  23.1570125  45.1724005  55.9961557  23.0807042
  43.9070749  55.3426647  22.5679898  40.9054136  59.1226530  38.9916587
  40.3034115  58.4004641  39.1712976  40.3677654  59.9098349  39.0783286
  28.9766645  69.5796633  46.1072397  29.5869207  69.0278006  46.5963888
  28.1132412  69.3362570  46.4411306  12.0342469  67.1677780  48.6478615
  11.1612439  67.2106266  48.2576561  12.3444355  66.2853575  48.4445238
  37.5105000  71.0938120  43.0600309  37.2133636  70.4896832  43.7404537
  37.0708108  71.9192314  43.2639503  73.2026196  19.9303341  48.7334585
  72.9588985  20.1482916  49.6330833  72.8072691  20.6226921  48.2037687
  59.7087812  58.4942770  36.2503314  59.6485519  57.6482058  35.8067489
  59.6520996  58.2809639  37.1817374  69.5075464   3.7191844  41.6466331
  69.9595165   3.5102588  42.4641323  69.9754143   4.4797724  41.3019037
  51.1005116  64.9239206  43.8324547  51.3398790  65.4773760  43.0890703
  50.1546574  65.0399303  43.9226627  65.3113317  58.0914402  42.1184731
  64.5507669  57.7216482  41.6701174  66.0410500  57.9383516  41.5182209
  47.8607988  61.2200117  41.2209272  46.9550562  61.0832071  40.9431839
  48.0195713  60.5321980  41.8674040   7.5131881  13.4016275  39.2048764
   7.6491380  13.8279736  38.3587217   7.6434088  12.4700868  39.0273738
  46.6696644  71.5245295  44.3826294  45.9241962  71.9068146  44.8456287
  47.2246456  72.2728920  44.1631269  48.1355190  67.4786949  23.6901975
  47.7827120  67.5055504  22.8007960  48.4794235  66.5904236  23.7847257
  54.5180988  56.0499907  30.9242797  55.3256464  55.5584764  31.0743284
  53.9451790  55.7960033  31.6478038   3.8708165   6.2877506  27.8037906
   3.9850336   7.0977473  28.3008742   4.6456844   5.7665235  28.0138731
  68.6992931   5.2034724  59.1323709  68.3625507   4.6080500  59.8019314
  69.6491718   5.0906020  59.1673088  49.7243404  72.9767466  57.7211809
  50.2621794  73.7357235  57.9468346  50.3493977  72.3278189  57.3980331
   1.5157674   4.6628124  48.1866026   1.4667259   5.0130135  49.0760851
   2.4488446   4.6795309  47.9737186  18.3369327  67.8746462  32.4748921
  18.8527548  67.1731520  32.0773196  18.5401452  68.6486006  31.9496012
  74.8504686  25.7647657  63.6451912  75.6513071  25.3947067  64.0165901
  75.1085377  26.6334724  63.3370018   1.5393436   4.1728038  50.9384060
   1.4564011   4.0704623  51.8865013   1.4533344   3.2841918  50.5931520
  37.9967761  59.8163652  25.8427811  37.7622557  58.9473772  25.5170584
  37.5578165  60.4223919  25.2458906  62.9360485  55.4821205  51.6807032
  63.8196135  55.6056070  51.3338709  62.4146080  55.2228451  50.9210253
  67.4459076   3.6620629  39.4472694  67.8301144   3.3202028  40.2545786
  68.1427193   4.1876078  39.0542150  40.7561636  69.9027872  47.4650908
  41.6789770  70.0991869  47.3036242  40.3430271  69.9688482  46.6041708
  29.7664690  62.7478075  45.6720543  28.8757825  62.7489710  45.3214693
  29.6764874  62.3853493  46.5533924   4.4941834   4.1402957  63.5353041
   3.8457072   4.7200152  63.1357622   5.2854180   4.6749914  63.6007214
  27.3810482  73.3322191  47.9122210  28.2322335  73.6740541  48.1858397
  27.2583723  73.6754704  47.0271444  58.2504463  12.9617369  48.6774111
  57.3998499  13.4005272  48.6637831  58.3478451  12.6560700  49.5792484
  37.6576257  51.4098120  31.0379004  36.7872977  51.3686991  31.4342213
  37.7629900  50.5636358  30.6030297  64.6916103   3.2363015  45.9050655
  64.1674614   3.7972102  45.3333282  64.3304062   3.3813989  46.7795467
  80.0125408  16.5730691  51.9503832  80.8833122  16.7916191  52.2823954
  80.0291061  16.8498635  51.0342264  35.4679608  74.2492390  54.1090488
  34.7539854  73.6352158  54.2806578  35.6551504  74.6431017  54.9611378
  50.4158163  67.1940851  31.8172693  49.5205164  67.1352911  31.4837766
  50.9192705  66.6031313  31.2573218  58.2368803   9.9243122  39.3927741
  57.3106480   9.9570310  39.1534948  58.6763144  10.4459655  38.7212038
   4.6446142   1.7770945  10.5474544   5.5596465   1.6017997  10.3278637
   4.6538162   1.9548164  11.4879656  61.2950039  62.8939915  65.5152178
  61.8162489  63.0953121  66.2923956  61.4226484  63.6478472  64.9393368
  59.3537188   8.3099270  59.4107819  60.2377272   8.5274690  59.7064877
  59.4415665   7.4457723  59.0085983  48.9186144  64.0548468  29.0854359
  49.1209936  63.1211710  29.1447997  48.5889912  64.1722965  28.1944895
  33.3345175  68.0292511  52.1728992  32.9838872  67.2136116  51.8150949
  34.0496731  68.2625532  51.5809917  54.6854639  76.1304808  29.3488979
  54.7215366  77.0482063  29.0792632  55.5822754  75.9224081  29.6109438
  29.0347099  72.1225119  41.1505604  28.4845281  72.8780985  40.9441137
  28.4688210  71.3655663  40.9987688  62.8456020  33.7042165  53.8938379
  63.7080097  33.2897401  53.8674879  62.3175192  33.1978035  53.2766581
  25.3260136  75.7600164  59.0710688  25.7772422  75.3815460  59.8256445
  26.0266709  76.1289787  58.5333157   8.4996122  11.8232226  51.4430809
   8.9138913  10.9606695  51.4184380   7.6059145  11.6513050  51.7396927
  35.8835053  15.4828858  12.5340891  36.7891097  15.7793176  12.4433112
  35.3778195  16.2881041  12.6442504  32.4294043  56.0397816  32.9764271
  32.4451780  55.1007986  33.1616163  32.8468919  56.1218500  32.1189880
  67.1546364  67.9277134  46.1638880  67.3754549  67.5149393  45.3289747
  67.9561377  68.3801842  46.4267635  27.7678967  48.1620264  16.3232768
  27.0917583  47.4866438  16.3773882  27.5390673  48.6681080  15.5436933
  38.0751777  68.0928612  33.5168266  37.8663397  69.0054226  33.7164640
  38.9441586  68.1279707  33.1169891  70.0783062  68.9387131  55.4167843
  70.1875353  68.6985731  56.3369083  69.5366096  68.2401562  55.0496101
  35.2873850  74.9533033  36.1802673  35.2497458  75.4456902  37.0002508
  34.4743133  74.4483757  36.1665535  36.3081813  51.6331196  28.0118918
  36.8615079  50.9709167  28.4260726  35.9337997  51.1902094  27.2503781
  52.5841808  66.9915056  50.4979706  52.7377892  66.1028528  50.8188105
  53.3599424  67.1949291  49.9754333   3.6330995  10.3733206  26.8698978
   4.0621388  11.1768079  27.1641183   4.1063112   9.6715945  27.3169804
  57.1770906   1.2062392  22.0927477  58.1133556   1.2606469  21.9012094
  57.0193672   0.2760827  22.2545004  55.5183315  63.0280113  53.8381529
  56.3443518  63.3556509  53.4823704  55.0334215  63.8162613  54.0826130
  32.0748639  76.9325018  10.6502926  32.8867698  76.5929508  11.0267854
  31.4031839  76.3097048  10.9281456   5.5493188  76.0693932   7.3358864
   4.8024821  76.2851810   7.8943688   5.8809316  75.2433872   7.6879877
  57.3765898  68.7176943  21.7388844  56.4980459  68.8450003  22.0969105
  57.8253508  69.5467091  21.9049525  71.7516088  56.9059372  43.7023735
  71.0280561  57.2964716  44.1924620  72.5351667  57.3270702  44.0558100
  45.9352112  65.2404928  48.3527088  45.5165720  64.9043989  49.1451836
  45.4782677  64.8009396  47.6356077  46.3098097  58.1399870  34.3217707
  46.9091702  58.1371546  35.0680900  45.4993010  57.7629662  34.6640587
  25.5168366  29.7722673  35.8125734  25.5300760  28.8726234  35.4859281
  24.6413612  30.0929046  35.5958581  62.1805334   8.7209201  30.3160381
  62.0027256   8.0614221  30.9866190  61.6043043   8.4847683  29.5891118
  54.0386152  55.2760363  33.5661674  54.7081661  55.4260063  34.2335820
  53.4454060  54.6371508  33.9613318  37.7342153  70.5811501  34.9203157
  36.9952250  70.9406996  35.4110765  38.2766795  71.3419533  34.7126126
  75.6299859  34.4433395   0.0925006  76.5154702  34.6978085   0.3521099
  75.2227169  35.2585165  -0.2005015  32.1437120  63.9094734  12.2557008
  32.0127153  63.9102364  11.3075066  32.6088095  63.0917740  12.4325728
  22.4002504  54.8815346  17.6218307  22.7821946  55.6635666  18.0202949
  21.5735102  54.7549534  18.0873561  33.8169718  68.4363651  27.0191073
  33.2487535  68.3801174  27.7873492  34.4974756  67.7817631  27.1760798
  55.6445503  60.5799961  31.1207628  55.8255339  60.9500790  31.9847727
  56.2757492  59.8662806  31.0289097  54.7454071  70.7955694  45.5118799
  54.8358870  71.7415428  45.3970814  54.7173643  70.4477310  44.6205568
  60.9945965  51.8208456  58.6453342  60.4773998  52.6154375  58.5135508
  61.6000700  51.8034983  57.9041672  47.3179960   3.2009169  41.0311413
  46.4344120   3.4874433  40.8000088  47.1837234   2.4205294  41.5689135
  54.6042967  70.4563284  38.8569403  54.1000700  70.8830643  39.5496726
  55.2334166  69.9057388  39.3230867  65.0392151   4.3102235  28.2955241
  64.4335032   4.9812469  28.6102843  65.8177662   4.4147789  28.8424754
  56.3781881  58.0463362  47.4288845  57.3181391  57.9679489  47.5919390
  56.3088703  58.7077332  46.7404222  65.9919119  13.9465153  42.3020124
  65.2850103  14.0730512  41.6691542  65.9322262  13.0229330  42.5462818
  43.5680151  18.6201811  51.0970974  42.7317190  18.9739048  50.7942343
  43.9851093  18.2803214  50.3054190  42.9533243  70.6419277  37.9670525
  43.5486555  71.3028622  37.6135182  43.5263729  69.9268484  38.2436585
   5.4527801   0.3375088  30.8426452   5.8108795   0.0908971  31.6953921
   5.8143991  -0.3079185  30.2352834  44.8653460  68.8389635  38.6852694
  45.0259304  67.9990339  39.1153455  44.8345613  68.6281919  37.7520704
  76.9114733   8.8088167  35.2255487  77.0486403   8.8562703  34.2794180
  77.7772999   8.6128610  35.5835605  45.1941156  61.2264872  40.4169416
  44.6819830  60.6540680  39.8457241  44.5559168  61.5791702  41.0370588
  77.4946499  10.1512861  62.4351501  76.6948032   9.7204131  62.7365208
  77.6191664  10.8786440  63.0448055  72.4319172  12.6137531  52.7359819
  72.9705954  12.1359074  52.1053267  71.7760849  13.0605805  52.2007656
  10.2725673  10.0023425  34.4844389  10.8040559  10.2673411  35.2351236
  10.5674481   9.1140676  34.2838287  57.7928972  20.3446865  64.6685839
  57.4119234  21.1255574  65.0702477  57.0404387  19.8540318  64.3379879
  65.2832031  35.5167460  15.2716255  64.3736267  35.2223825  15.2241540
  65.7177305  35.0700736  14.5450592  39.2632937  75.2051973  29.9123883
  38.7278390  74.7573757  30.5673504  38.7082982  75.9180164  29.5960021
  29.3752289   7.3041236   4.2595470  30.3128576   7.4150187   4.1021177
  29.3059945   7.1624422   5.2036679  76.2506580  27.6623940  45.4568386
  75.8325243  28.4671402  45.7630682  75.9327888  26.9851375  46.0539246
  76.7448616   6.9968861  30.9665799  77.0958233   6.2855005  31.5022922
  75.8148527   7.0291829  31.1907935  48.5501051  61.9316578  19.2934310
  47.9690313  61.2255001  19.5761490  48.7015629  61.7596102  18.3640802
  69.3774557  19.3702865  54.8219585  69.8610306  20.1205707  55.1675892
  68.5213041  19.7261369  54.5840311  68.8287258   6.0995424  45.3009510
  69.3032026   5.4153186  45.7731152  68.1342888   6.3681489  45.9024811
   2.6869327   8.2266402  43.4011555   1.8059525   8.5450703  43.2044125
   2.5622901   7.6047963  44.1180992  33.7820554  69.9825382  44.7348738
  34.6753621  69.8252344  45.0406361  33.7865305  70.8933640  44.4405842
  18.6238062  75.2567863  11.0434258  18.1678772  75.2026320  11.8833232
  17.9235625  75.3323746  10.3952157  65.4286480  57.8953981  33.2960653
  66.2190676  58.4137869  33.4468842  64.7282457  58.5433388  33.2196045
  68.5248232  68.8513708  36.2085819  69.4205713  68.9804745  36.5203500
  68.0478668  68.5334969  36.9752002  21.5748692  69.4824171   1.9485833
  21.0677290  68.8561583   1.4320210  21.6766572  69.0618277   2.8023827
  64.8988247  13.1822038  54.3111229  64.1701078  13.1082273  54.9273443
  65.3972435  13.9390409  54.6193504  23.8064671   8.5305750  39.5071435
  23.2806826   8.4153163  40.2986574  24.4758773   9.1682869  39.7550297
  15.5096388   6.3089854  49.2406845  15.0037980   5.9660059  49.9773788
  15.3444588   7.2517174  49.2549658  57.2490406   8.2460374  51.0358572
  57.3551607   8.5664737  51.9315624  56.4606047   7.7041686  51.0671616
  43.6971283  72.5540352  48.5992146  43.8498688  71.7137337  49.0314150
  44.1972303  73.1844139  49.1176319  80.7221413  67.0269203  64.8831940
  81.4295197  67.4002218  65.4090166  80.1318645  67.7623701  64.7191572
  72.3591375  72.8934574  46.8762493  72.8709221  72.5844097  46.1287212
  72.7367115  72.4389935  47.6293325  75.5665398  17.5204790  60.8433771
  75.4250431  17.9279006  61.6979027  75.7442427  16.6012955  61.0427618
  50.5249977  13.1741023  40.7332563  50.7029390  13.6149752  39.9024725
  51.1824560  12.4801087  40.7817459  14.8771739  12.8635073  52.0552158
  14.1424084  12.2753894  52.2297716  14.9517274  13.3953536  52.8475666
  44.2440033  64.9390030  58.4480286  45.1077080  64.6063709  58.6921549
  44.3957472  65.4292250  57.6400137  65.8974612  77.5323441  47.4900198
  65.4420770  77.2373857  48.2785988  65.8164776  76.8002528  46.8787003
  24.2203188   0.4056142  12.4955308  24.4334745  -0.5103124  12.6740646
  24.1112900   0.7992821  13.3611917  20.1880312   3.8372362  23.0360579
  20.8678842   4.1231310  22.4258995  19.8047209   3.0638468  22.6223278
   1.4159018  48.3199072  32.2605085   1.0714571  48.8423061  31.5361571
   2.0536575  47.7347517  31.8517375  59.1838837  58.5134220  17.8392100
  58.6472702  58.9607334  17.1848464  59.3547583  57.6512718  17.4600899
   2.4610029   8.4854341  55.3343821   2.0543197   9.3222505  55.5592775
   2.0788106   8.2531685  54.4880867  80.5911255   4.1011214  13.4451652
  81.0847569   4.8832396  13.1984818  80.7517529   4.0026113  14.3836355
   8.2784712   1.2284410  37.0402217   7.4046862   1.0003230  37.3575449
   8.7083811   0.3855343  36.8955946  43.6196899  69.5175219  45.8798170
  43.0470037  68.8988495  45.4264879  44.4911289  69.1262722  45.8186150
  79.6878147  51.2982988  28.6447167  78.9374971  51.6517735  29.1225338
  79.5405054  50.3525686  28.6332083  20.0313663  25.8707833  19.6153677
  19.5773208  25.5987144  18.8178384  19.4459176  25.6082606  20.3256941
  20.4188204  68.2288551  43.5680151  20.8991027  68.8248777  44.1427469
  20.7926202  67.3668098  43.7507153  60.7096148  64.6250534  24.3225527
  61.4966774  64.2408943  23.9363074  60.5258656  64.0777397  25.0860405
   6.8342918  16.3115847  42.2131824   7.0062315  15.3876054  42.3946524
   7.6772153  16.6593921  41.9220781  72.7401829   2.0765990  39.2947555
  72.6478243   2.9674476  39.6325278  73.6057043   1.7962003  39.5922160
   1.8024080   3.7067732  53.7058735   1.6731200   4.2484963  54.4843674
   1.4741734   2.8435513  53.9575529  77.1993208   5.1897943  44.1478205
  76.3540888   5.5224746  43.8459349  77.6009989   5.9316254  44.6001196
   5.2425188  75.9397221  41.1840916   5.5871499  75.6455421  42.0272541
   4.2924434  75.9401464  41.3006639  53.3605957  13.5114563  55.9065819
  53.7412167  12.6785302  56.1851454  52.4921656  13.5244215  56.3089371
  71.1332560  10.1156557  58.1096125  70.5058813   9.5007348  57.7294731
  71.7402267  10.3106129  57.3956060  78.8865805  26.6592669  45.1814556
  77.9520512  26.8187237  45.3135920  79.3208885  27.3262739  45.7131577
  37.8531098  70.3022575  51.8975401  38.4557080  71.0459661  51.8970156
  37.6618552  70.1496077  52.8229332  78.6028814   2.4141040  64.5784569
  78.2455349   1.5501496  64.7836828  78.6791563   2.4212702  63.6243248
  56.2457848  73.4567976  31.1394072  57.1135139  73.0891943  31.3071799
  56.4002085  74.1541290  30.5021381   9.1444188   4.7421619  27.3377895
   9.0060681   4.9254143  26.4085388   8.4469110   5.2231234  27.7832007
   1.7631698  25.1151347  55.2054024   1.4832519  24.5232511  54.5071507
   1.1749452  25.8667326  55.1324415  68.7803888  10.7278955  36.6853595
  69.3638611  11.3449168  36.2436867  68.7327814  11.0465503  37.5867057
   8.5147810  25.7809019  54.8862123   8.7632287  25.1935768  55.6000423
   9.2230266  26.4236379  54.8473692  63.2986212  20.7473087  31.6133380
  62.6324034  20.9875417  30.9693837  63.4375334  21.5453219  32.1233487
  70.6957054   1.1011467   1.8865080  71.3320303   1.1889854   1.1768523
  70.0785017   1.8189651   1.7449921  70.8394337  21.3367271  57.8617191
  70.0354338  21.8106174  58.0744171  70.8416557  20.5886698  58.4589100
  72.9654264  54.6526241  37.0871830  73.8643360  54.4223547  36.8522882
  72.4538088  53.8736105  36.8689799  44.6795559  75.4310131  44.5753098
  44.0745640  74.6980524  44.4613504  44.3900204  76.0821486  43.9362288
   6.6769445   6.2334490  38.8203025   7.6131564   6.1459863  38.6411691
   6.5690291   7.1452242  39.0909553  56.9700003  69.4809771  58.0561256
  57.0754528  68.9060211  57.2981453  56.1615801  69.9625874  57.8807926
  15.9089959   3.4898651  51.8198967  16.5005088   3.2752860  52.5412178
  15.4001844   4.2344207  52.1408033  25.8303380  56.4322805  52.3669529
  26.0248494  57.0980549  51.7073011  25.1408100  55.8983803  51.9723272
  70.5801868   3.6752886  52.1826887  71.5250158   3.7780717  52.0688248
  70.4440737   2.7282640  52.2118378  24.0329814   9.2481184  62.5151968
  23.4936452   9.3171823  63.3029652  24.2353988  10.1544738  62.2832966
  38.0090952  63.0706406  44.3240833  38.1694818  62.6401138  43.4843493
  37.6069188  63.9074659  44.0912485  30.6986308  71.0355568  35.3608823
  29.8880076  70.6576729  35.7019472  31.0551357  70.3584671  34.7858262
  75.3175163   4.8088083  52.9641867  75.9349871   5.4110050  52.5490713
  74.6003723   4.7298110  52.3351479  77.7622843  61.5872955  18.3148181
  77.4530602  61.6091490  17.4092066  78.6371231  61.2027311  18.2599759
  72.0997334  71.8321896  55.4292727  72.2870922  70.9120512  55.2435970
  71.6199350  71.8165445  56.2573910   5.3408587   4.2566511  37.2717428
   6.0509348   3.8014489  36.8191767   5.7669586   4.9990213  37.7001786
  81.0828209   6.2802899  49.2706060  81.8249226   6.8611437  49.4383383
  81.1664581   5.5890667  49.9274492  66.5928650  20.5193400  54.0868521
  66.2999439  20.8806992  53.2502842  65.7914543  20.4287577  54.6023798
  76.4139366  69.3810463  63.8717937  77.3019552  69.5762873  64.1710138
  75.8508778  69.9274778  64.4200706   7.0922542   8.2599616  47.0546532
   6.8296272   9.1308469  46.7566347   8.0489898   8.2883501  47.0637798
  10.1000381  14.0943170  62.5851536  10.1615262  13.9666510  63.5318041
   9.3108380  13.6166191  62.3298120  46.2088966  66.4299250  43.7966108
  45.5350304  67.0041704  43.4327650  46.5896463  66.9334078  44.5161676
  52.4411964  63.9598036  40.3611231  51.8153667  63.4839630  40.9071445
  51.9440651  64.1972160  39.5783520  74.8878384   4.8938671  37.4589515
  75.3273058   4.9575606  38.3069158  75.3692389   5.4980171  36.8937159
  48.1060934  71.8919134  40.6793213  48.7089014  71.8449020  39.9372673
  47.2795868  71.5498877  40.3385305  66.3830948  13.2428432  59.2050171
  66.2753391  12.6529968  59.9511433  66.4865637  12.6605630  58.4523726
   2.0845506  33.3863783  50.2907324   1.2911698  33.4498000  50.8224821
   2.7999935  33.5325336  50.9096146  52.3895216  67.6103640  28.1599498
  52.7339220  68.1906939  28.8388014  52.4841404  68.1087112  27.3482060
  54.6345949  69.7407341  42.7822447  55.3606081  69.4927120  42.2098637
  53.9176655  69.9489975  42.1831846  58.8968134  62.0404005  25.0756502
  59.7906256  62.1261120  25.4072857  58.3893824  62.6685667  25.5896044
   2.6507857  54.7217607   0.5563448   3.4270102  54.8234510   1.1071316
   2.8646806  53.9935255  -0.0268866  65.4373169   1.1878179  25.2175665
  64.6659327   1.6987571  25.4627895  65.7745457   0.8500262  26.0472703
  65.6565619  53.4833193  19.0994740  65.9852028  53.0638981  19.8946536
  65.6304026  52.7798223  18.4509063  81.4672089   0.8911357  32.7191448
  82.3984718   0.8207725  32.5093293  81.1240673   1.5151535  32.0795441
  64.3017006  62.3678923  46.6720295  64.2193937  63.0581045  46.0139513
  63.8197422  61.6273117  46.3039446   6.6354638  15.5374432  56.3189554
   6.3785827  14.6546209  56.0527468   6.0584402  15.7432580  57.0544243
  47.7452135  71.5689421  32.3754334  48.5061359  72.1492052  32.3525691
  47.6933765  71.2776899  33.2857728  39.9763560  73.0967760  33.2731915
  40.4443264  72.8862476  32.4651575  40.6523275  73.0874300  33.9508367
  70.4909420   6.4096916  41.1065960  70.7097435   7.3415005  41.1160898
  69.8952103   6.3111037  40.3638887  59.1642475   6.3279706  31.7570591
  59.3859148   7.0764631  32.3110032  58.2250309   6.2007588  31.8909216
  14.6601999  14.0125442  25.3352308  15.5929375  14.1349626  25.1584649
  14.2188346  14.4619632  24.6145010  54.7499800  71.2124586  50.8002090
  55.1083040  70.3472853  50.9984732  53.8742161  71.0359716  50.4565144
  54.5608377  65.2947330  54.7587204  54.9277210  65.0235367  55.6001997
  53.8154888  65.8490324  54.9898863  43.5279799  75.5826664  25.9778380
  44.1584682  75.1317358  25.4162502  44.0630865  75.9938002  26.6567063
  45.2989435  65.1694202  27.1678543  45.5336475  65.6734800  26.3887095
  44.9135351  64.3633175  26.8245006  44.5770979  60.5138540  44.1915178
  44.0822506  61.1120939  43.6316395  44.0422630  60.4266691  44.9805546
  53.0400896  18.4323037  49.6683979  53.8439083  18.1689656  50.1164675
  53.2482958  19.2836487  49.2835712   6.5170556  31.6412425  56.9641304
   5.8815718  31.6396475  56.2483168   6.6112089  32.5644493  57.1987677
  60.4885960  56.1530256  14.6136856  61.2044859  56.7880297  14.6362627
  60.3315449  56.0021830  13.6815846  52.3316383  72.5610542  59.6987677
  51.8716621  71.9077635  59.1716337  51.6788197  73.2425785  59.8587084
  76.1423254  62.8873444  45.9952307  76.4301443  63.2652473  45.1642132
  76.8785477  62.3458719  46.2798643  23.5873795   3.0322093  19.2131376
  22.8179932   2.8354096  18.6787748  23.6824918   2.2709672  19.7855854
  47.3937130  68.8925791  44.1175747  47.3010969  69.8415184  44.2022610
  47.0101404  68.5418129  44.9213552  69.7092581  18.1482077  24.7711802
  69.5669460  18.0705488  25.7145500  68.9841938  18.6921597  24.4635558
  50.2937889  66.6637897  60.5013657  49.7406101  66.8950939  59.7552252
  50.4391813  65.7222223  60.4089499  78.6720610   6.1144477  37.9919076
  79.4059515   6.2807393  38.5835028  78.7237024   6.8162608  37.3430443
  17.1630645  12.9081476  21.1000466  17.5062239  12.3210227  21.7736626
  16.2121975  12.8496337  21.1931014  52.2428751  60.4761696  25.2275753
  52.2552204  59.9168968  26.0042977  51.3621521  60.3680801  24.8685813
  35.7096815   7.6799607  36.8410254  36.4430451   7.2240341  37.2539902
  34.9762845   7.0691890  36.9139576  35.8754992  28.6876631  28.2554674
  35.0432563  29.1578245  28.2049394  36.3996363  29.1944790  28.8756680
  33.2143474  16.9239867  49.9627161  32.6482916  17.6621366  50.1884270
  32.6597261  16.3494670  49.4349337  15.5274951   1.4562720  27.6514816
  15.4023290   0.8199995  26.9474053  15.2440870   2.2892976  27.2746801
   8.1718618   8.7646425  37.4502468   7.9124582   7.8468806  37.3686743
   8.3230245   9.0517622  36.5497231  24.2850018  26.6848493  66.6296339
  23.8905168  27.5554037  66.5772057  25.2115083  26.8517613  66.8027115
  36.1708260  12.5881159  34.0050483  36.5987968  11.7353201  34.0812922
  35.3495669  12.4878418  34.4864130  21.8911076   7.5959784  31.7239714
  21.9279456   8.4001029  31.2060332  22.2106528   6.9149804  31.1320567
  40.7189035   0.9952624  27.9563355  40.5063963   0.0829252  28.1530929
  40.8183479   1.4083669  28.8140583  11.8761981  16.1101174  45.8526802
  12.7680337  15.9205413  45.5612659  11.3376534  15.4449975  45.4239416
   3.5538650  13.4554136  11.2592852   3.1364450  14.0268767  10.6147540
   4.4198704  13.8399088  11.3950408  35.5373216   8.1172568  26.5075421
  36.0578513   8.9195311  26.4670849  35.5680394   7.7666730  25.6173873
   5.0154084  52.6107788  13.7714326   4.9043724  51.9244432  14.4293439
   5.2451408  53.3911753  14.2758501  36.2916040   2.6709655  38.1773186
  36.6601157   1.8007255  38.3293486  37.0455050   3.2597378  38.2121205
  22.6475883  26.3782716  16.8507731  22.4294806  26.8166661  17.6732516
  23.0101538  25.5337596  17.1183157  74.2823601  60.3823280  31.9243741
  74.0576696  59.4916725  32.1935844  75.0841284  60.5833673  32.4070525
  31.6760349  10.8425581  66.9172430  31.3509774  10.0220668  67.2878695
  31.2505722  10.9042168  66.0620165  42.9884720   7.0744008  24.1478491
  42.0481396   6.9712305  24.0016937  43.1079960   6.8879384  25.0790739
  33.7547255   3.9203325  56.6185713  33.9107943   4.6560305  56.0264349
  34.3573952   3.2397076  56.3189459  32.1036410   5.3803474  18.4034896
  32.6701713   4.7646376  18.8684404  31.2407517   5.2575397  18.7991810
  14.8868322  10.2982426  18.6994660  15.5364573  10.9644806  18.4750855
  14.3492806  10.2130878  17.9120541  74.0995979  17.3667634  20.4991293
  74.4070864  17.0384526  21.3440514  73.2164097  17.6911068  20.6752324
  74.7961998  66.6294289   9.6467549  74.1498804  66.9009113  10.2985215
  75.1305771  67.4500370   9.2847794  21.2129140   2.3272200  18.0832219
  20.7998800   2.1363382  17.2410834  20.5332017   2.1411853  18.7309980
  72.4259138  73.1488800  21.7833447  72.4468565  73.3653069  20.8511686
  71.8522453  72.3846531  21.8389630  53.0383110  75.7725048  39.5347476
  53.8486528  75.2630663  39.5417500  52.4677181  75.3065109  38.9235950
  78.9523077  27.0267558  29.5073557  78.3515310  26.3060760  29.3178439
  78.7422609  27.6922560  28.8522077  45.9244156  76.7206335  37.0113158
  46.6014242  76.2680435  36.5082693  46.1526966  77.6475048  36.9403768
  23.2230544   4.2809823  32.8105474  23.5237575   5.0953764  33.2137489
  22.3527217   4.4890577  32.4707580  74.2068863  23.0742335  47.2541428
  73.3043957  23.0557418  46.9357109  74.1287231  23.2919526  48.1829739
  32.6380968   4.4448793  12.5468099  31.9279552   4.7741202  13.0977476
  32.3163438   4.5523402  11.6517353  36.8073872  -0.1845854  17.4541247
  36.3864109   0.6182892  17.1468723  37.7443245  -0.0188273  17.3496962
  28.8318038   9.6830523  15.2880120  28.8366699  10.4697454  14.7427392
  29.7189546   9.3321574  15.2101290  75.6630707  72.5550652  13.9060771
  74.8601580  72.9874849  13.6152589  75.5569935  72.4648190  14.8530912
  76.2891674   0.8132469  45.7472754  76.5385580  -0.1106150  45.7699537
  76.4216566   1.0748002  44.8360825   9.8091412   6.8273979   9.6556854
   8.8660467   6.6949421   9.7519124  10.0029516   7.5821471  10.2115834
  69.7782946  76.1520720  25.8869958  69.7673893  75.9989882  24.9421787
  70.5996037  75.7600737  26.1836791  10.3429675  10.2152777  25.1159477
  11.1410153   9.7883421  25.4275203  10.2887464  11.0233080  25.6262207
  25.0612950  11.6385686  20.1578569  25.8454275  11.4577127  19.6395338
  24.8864770  10.8195817  20.6214643  40.7148838  17.9802644  48.0589676
  39.8601627  17.6226544  48.2993889  41.3432407  17.3285556  48.3698940
  77.8277397  67.8057766  16.9472730  77.0771027  67.4998140  17.4563563
  78.1665039  68.5505486  17.4440479  28.2900405  18.7050653  23.1480384
  29.1055536  18.2839847  23.4198165  28.5599184  19.3506026  22.4948335
  32.1848392  22.5836635  24.6852922  32.6081896  23.0962729  25.3739429
  31.2549162  22.6004624  24.9115515  20.2618909   2.1199484  29.3444633
  20.4520202   1.7636080  28.4766459  20.0176501   1.3570192  29.8684049
   5.1406866  13.1602132  24.3434954   5.2271813  12.2207010  24.1820383
   5.6614816  13.3168125  25.1312017  18.5581684  10.0118351  32.6874089
  18.0583763  10.8262742  32.7433467  19.2154443  10.0861669  33.3792877
  22.3433948   0.6454537  35.5562210  23.0701542   0.9184545  34.9962878
  22.1084976  -0.2255215  35.2361298  65.2877426  53.7418127  27.8228617
  64.4629002  54.2262697  27.8569341  65.0537300  52.8972101  27.4380040
  18.8114512  21.2559891  38.5729480  18.0429506  20.8373880  38.9607787
  18.9701879  20.7651973  37.7666235  36.6833210   7.3276514   9.3263757
  35.8970380   7.6430726   9.7719127  36.5229583   6.3939089   9.1898465
  49.4250154   2.3406833  16.9174516  49.2243958   3.0761701  17.4962795
  50.3142023   2.0814064  17.1590185  31.1694241  13.7684798  41.7267990
  30.4502559  14.3376756  41.4528561  31.3607121  13.2358503  40.9548235
  59.5375776  70.2061176  29.2983341  60.2759027  69.7265148  28.9227152
  59.2708063  69.6819830  30.0535488  11.0314572  13.2087934  51.6225052
  10.2071321  12.7758217  51.4005709  11.0327029  14.0068436  51.0939741
  28.1723380   6.0270590  13.2782793  28.4403682   6.5230858  14.0518105
  28.7985587   5.3048730  13.2280123   8.6303270  49.7380972  42.7937841
   7.6987779  49.7343397  43.0138588   9.0249664  50.3317022  43.4326315
  64.8613930  41.3621426  62.5362206  64.7538280  40.5518723  62.0381021
  63.9905691  41.5432596  62.8899050  17.3863018  12.5598872  38.9540339
  16.9267929  12.9560649  38.2136774  17.9011166  11.8525279  38.5656524
   9.6800113   8.4747243   1.4461198   9.1236967   9.1565865   1.0695437
   9.6021467   7.7393246   0.8383729  81.1944580  47.7436209  34.3173027
  81.4836025  47.6194191  35.2212930  81.9995880  47.9191208  33.8302779
  64.3615150  56.6019821  22.8681254  64.1474152  55.9350443  22.2157550
  65.2243423  56.9239759  22.6071978  19.3340588   9.8165900   8.1098866
  18.5159290   9.9126256   7.6223689  19.3081248   8.9212018   8.4472877
   0.4697105   9.4077390  20.5047274  -0.3583459   8.9411092  20.3914785
   0.6399032   9.8043853  19.6503639  61.4343405  61.9904709  26.2395978
  61.3773966  61.0352468  26.2626600  62.3627901  62.1784496  26.3769960
  17.3208332  12.4510539  32.5237036  16.6243792  12.4681330  31.8672800
  17.7977967  13.2698214  32.3882127  58.2598972  69.7114229  60.5399466
  57.6170254  69.7110844  59.8307610  57.9059172  70.3249216  61.1838055
  81.4444447  61.7742777  19.5980704  82.3848152  61.9111252  19.4831240
  81.1602020  61.3654852  18.7805569  17.2673154   9.8495710  25.0534940
  17.1842396   8.8969427  25.0107169  16.6473293  10.1137769  25.7332325
  27.7906561  22.8850865  34.8182440  27.8529906  22.7053547  35.7563496
  28.6732960  23.1576109  34.5674229  35.9224701   1.9039527  20.9331489
  36.5906596   2.5170934  21.2394357  35.7204795   2.1944559  20.0437450
  23.1549096  21.7276835  50.1945019  23.7652206  21.5599346  49.4764423
  23.7159038  21.9269037  50.9440565  12.3889327  15.3060865  32.6715899
  12.8125131  15.5404520  33.4973502  11.8095410  14.5784700  32.8976679
   4.5808491  38.8214779  23.0890250   4.8962763  39.0176630  23.9712095
   5.3511679  38.4902287  22.6273823  33.3447695   7.9253203  20.5874276
  33.7102246   8.5711014  21.1921096  32.8984094   8.4472466  19.9206519
  32.3525500  18.0313265  27.4739242  33.0661345  18.0906820  26.8387032
  32.7860427  18.0772805  28.3261013  39.1627336   3.1271648  38.1668186
  40.1113462   3.1499413  38.2927227  38.9042306   2.2507998  38.4521103
  33.5673714   2.5580007  10.2282631  33.8712287   2.2633505  11.0867989
  34.1049480   3.3259237  10.0345170  26.4542365  53.9471626  31.8395853
  26.5897036  53.4414434  32.6409149  26.9768214  53.4930754  31.1785674
  29.2795253  10.2664745  48.7328529  29.9151826  10.8044612  49.2048073
  29.7625828   9.4734609  48.5004377  21.2580132  22.3262525  41.2363291
  20.6233835  21.6225529  41.3715506  21.9256425  22.1786666  41.9061947
  50.3638554  72.7110624  39.3934679  50.6835222  73.3345079  38.7412691
  49.8158312  73.2352877  39.9774957  71.1668444  61.6693497  36.7237043
  71.1984444  61.0148907  36.0259104  71.1745119  61.1575890  37.5325775
  77.4444914  76.6122770  46.8815422  77.5314426  75.7168484  46.5546227
  76.5618467  76.6480207  47.2501707  37.6981282  16.0159719  33.1783938
  38.2494950  16.6724205  32.7525973  38.0320430  15.9672785  34.0741396
  21.5933371  15.5775321  31.3213301  21.7229366  16.5257204  31.3019514
  22.4571276  15.2137101  31.1270833  22.8944945   9.8864657  65.0472832
  23.1143451  10.7903183  65.2729988  23.3915138   9.3563366  65.6703138
  63.6310053  65.5184698  27.0697308  64.4090319  65.7658768  26.5700316
  63.6696529  64.5631552  27.1157169  76.7183828  64.1019011  15.6788051
  76.8091583  64.0540314  14.7271228  76.4363766  63.2243633  15.9369445
  80.8767128  73.8645411  31.7304707  80.4662704  74.3815279  31.0372949
  81.3628006  73.1835556  31.2654901  70.2953911  62.2792244  11.5005326
  70.0955009  62.9064322  10.8056295  70.2751827  61.4263439  11.0664690
  27.3701119   5.2297378  23.9636970  27.6674223   5.4473561  23.0802488
  28.1752396   5.1570737  24.4762588  10.4660809  18.3378613  28.6825871
  10.8466709  17.5805748  29.1274452  11.0682917  19.0564847  28.8753390
  23.6638117  21.7035460  31.5244174  23.0060029  21.2783408  32.0746183
  24.2950487  22.0685697  32.1445227  25.6744766   5.1622939   0.6992112
  26.2511754   5.1473027   1.4630333  25.1113558   5.9235692   0.8391690
  73.9643478  68.3331251  27.8004670  73.1852436  68.3870029  27.2469997
  74.3679523  67.4976635  27.5652194  12.9078662   9.3921620  39.7184587
  12.3898208   8.9928728  39.0195823  12.3777270   9.2744768  40.5067062
  46.2614107  14.3052077  19.4177580  47.1810579  14.0954447  19.2550361
  45.8907986  13.4974718  19.7733426  32.5934982  18.9298546  58.6125612
  33.5244346  19.1509497  58.5860395  32.5381827  18.1997967  59.2291546
  80.5278492  60.8129501  35.4079223  80.9333038  61.6676283  35.2617574
  80.2449512  60.8352566  36.3220882  79.4569969  11.4255893  46.0552263
  80.2712345  11.4165246  45.5520630  79.1872454  10.5078769  46.0908747
   4.8157880   1.6773944  13.5055637   5.2482659   2.4470055  13.8755548
   5.2604324   0.9339100  13.9126933  81.5291882  77.3139191   8.7890923
  81.0951614  77.5894594   9.5965111  81.9753456  76.4999294   9.0227652
  48.0957747  67.0270586  31.0065055  47.2302580  67.0064497  31.4147758
  47.9324579  66.8130684  30.0879359  34.4582868  12.7339196  38.5552406
  35.0436497  13.2596684  38.0101085  34.8319983  11.8531203  38.5276151
   8.0385822  54.9898434  32.1688581   8.3437979  54.1863728  31.7475390
   8.1943619  54.8449802  33.1021214  47.3039722  29.8998618   3.9638898
  48.1732273  29.6601915   3.6426681  47.4464750  30.7039165   4.4633099
  36.2890649  45.8324194  65.3925991  35.5781341  46.2105703  65.9101057
  36.2886477  46.3378286  64.5797062  21.6606021  74.0721798  31.6142464
  22.3445344  74.4388819  31.0538912  21.0066056  74.7679806  31.6804934
  72.2388887  10.1736712  39.1004252  71.9997406   9.8541242  39.9704432
  72.1783257  11.1264014  39.1701913  37.5227547   8.5488784  30.9011483
  37.7918720   9.1293347  30.1891947  36.6828632   8.9025056  31.1940002
  29.8689628  16.1523914  40.1379156  29.2788982  15.4221237  39.9514556
  29.3446112  16.9342387  39.9646997  39.7490358  31.7575574  24.7712231
  39.4805598  30.9827185  25.2649617  38.9542937  32.2869992  24.7056055
  34.5600867  12.1854830  51.5942717  35.4369926  11.8102849  51.6748571
  34.5118928  12.8346205  52.2960758  38.5831928  16.3924932  13.0436194
  38.3704448  16.7947078  13.8857555  38.8887477  17.1196377  12.5012815
  20.1718593   2.6826254  35.6559348  19.3473876   2.1985507  35.6095695
  20.8481336   2.0158724  35.5362415  27.5321531  12.4282575  23.5699058
  27.6932764  11.7016637  24.1718459  26.6775084  12.7709210  23.8314223
  26.9287729  22.7317119  32.1379018  27.2253036  22.3254108  31.3235188
  27.5762916  22.4625850  32.7894568  24.0005684  22.8673148  29.0004659
  23.9117861  22.6005411  29.9154401  23.7586856  23.7934399  28.9964557
  33.9264655  23.0286837  22.4552584  33.5307026  22.8121972  23.2994962
  34.7715116  22.5791907  22.4645782  13.0333531  73.8609838  47.8141308
  13.0983710  73.4645081  48.6829329  13.8760424  74.2964935  47.6859331
  23.6073351  28.2922697  15.1034153  23.0342269  27.8102422  14.5072365
  23.6575794  27.7417040  15.8848143  30.8616638  23.3091545  21.7260885
  30.4949903  23.0426025  22.5691390  31.7083549  23.6980772  21.9453692
  11.2299764  74.7511053   3.6269364  10.2963269  74.8338032   3.4327954
  11.4271224  73.8282490   3.4666255  17.8562498  16.4787972  31.0072160
  17.9117143  17.3007452  30.5198193  18.0243731  15.8005905  30.3529978
  39.0653133  19.2308557  21.2830782  38.7055087  18.7274373  22.0133805
  38.7672615  20.1268435  21.4399385   6.9350451  52.4902821  28.1790876
   7.8327626  52.2870779  27.9163265   6.4523053  51.6770601  28.0312181
  19.0594947  75.0991154   4.4280031  18.9640045  75.3077364   3.4987077
  18.1645501  74.9504232   4.7332877  23.4902906  21.6320419  42.8305149
  23.7808204  20.7508039  42.5954723  23.7782812  21.7455578  43.7362766
  28.6120486   8.2852751  38.7002468  29.2991471   7.6452208  38.8858724
  28.0180120   8.2226843  39.4481993  81.7568779  74.5398092  24.7551250
  81.5083504  75.0020409  23.9546204  81.3450432  73.6796713  24.6727180
  21.8152785  27.5682712  22.3662758  22.5204039  27.3336935  21.7629480
  22.2321749  28.1393957  23.0114484  73.7965155   5.1495886  18.3591413
  73.6846113   6.0988468  18.4103119  73.3414650   4.8128223  19.1309893
  23.0125952  12.1241474  37.2481799  22.7506375  12.5495207  38.0646753
  22.4823284  11.3280690  37.2120047   8.4748852  43.8958597  37.0716190
   7.6724964  44.1728020  36.6292334   8.1948942  43.6762524  37.9602218
  33.7781835  25.8241343  22.0455027  33.6986303  24.9337101  21.7033839
  34.6841574  26.0716820  21.8606758  35.3569508  18.0617118  29.7880602
  35.3263474  17.1051621  29.7704720  36.0910368  18.2883978  29.2171288
  48.2010412  15.8208072   8.6866653  48.5758972  16.0890663   7.8477657
  47.2890329  15.6111431   8.4853846  27.3312807  34.3487024  36.7630172
  27.5285292  33.6364532  37.3713160  26.5189028  34.0794706  36.3343120
  20.2556705  10.6840134  34.8181009  19.8894823  11.5489352  35.0026202
  21.1642575  10.8563197  34.5710921  14.7027755  30.4344988  19.5260656
  14.0368176  30.7465434  20.1387310  15.1297152  31.2309003  19.2103148
  53.6519909  16.7460120  23.7632942  54.5907068  16.6524398  23.6011696
  53.3778858  17.4547565  23.1812477  33.6215425  24.9796152  18.7707186
  34.3841720  24.4328380  18.5818732  32.8724718  24.3963909  18.6483490
  62.5732803  65.1838350  35.8489633  62.2716236  66.0033798  35.4570699
  61.9332266  64.5319271  35.5633521  15.1537681   2.4909365  38.3529091
  14.9448907   1.5571573  38.3272505  16.1067951   2.5255343  38.2706046
  32.1104765  19.5921612  49.8771811  32.8800082  20.1583576  49.8182201
  31.7042971  19.6492338  49.0123129  32.5373864  17.6711214  54.5539999
  32.1542692  16.8685246  54.9079657  31.8196416  18.3043242  54.5652008
  13.6538577  26.0351253  32.2091889  12.9704928  25.4133129  31.9590020
  13.4125710  26.8478203  31.7647362  19.4767392  28.5966158  17.4488401
  20.0087857  28.9193797  18.1761515  19.5861435  27.6460624  17.4754262
  18.0031610  31.1668634  37.9493475  18.8074946  31.3709474  37.4722409
  18.2997048  30.9274697  38.8274026  27.9035187  13.5140002  20.7319450
  27.8973675  13.2993209  21.6647410  27.5981140  12.7159953  20.3004956
  21.9996595  18.1734514  31.1694121  22.5599289  17.9098642  31.8993807
  21.4225912  18.8414884  31.5394807  17.4904954  25.5420709  29.0817595
  16.6878378  25.7515144  28.6041546  17.2184122  25.4946637  29.9982500
  34.0459824   9.6381193  22.3239326  33.6664772   9.7334421  23.1975007
  34.8381829  10.1748836  22.3470759  30.0409079   9.4836217   9.1215348
  30.3367352   9.3545580  10.0226784  29.4804716  10.2585387   9.1620898
  29.9774218  45.4415846  11.7994285  29.2647409  45.7891226  11.2632048
  30.7732248  45.6808758  11.3243878   9.4178200   1.8362689  42.8462934
   9.9457598   2.6169360  42.6787519   8.5537922   2.0515364  42.4950838
  21.5954542  36.2425041   6.3929802  21.9293809  35.6754327   7.0880747
  22.0554709  37.0723772   6.5191859  68.9775801  71.2639046  32.0089984
  68.8464689  72.1004200  32.4554086  69.8173189  71.3610888  31.5599632
  10.5200076  31.0142159  26.0669827  11.3655651  31.1741924  26.4861155
  10.6126213  30.1516986  25.6623626  37.1242785  30.7553077  21.5290260
  36.8123341  31.0029507  22.3994255  38.0692649  30.9041190  21.5619659
  38.3995485  22.5446677  39.9659967  38.7826729  21.6794181  40.1101828
  37.5490355  22.3661685  39.5647502  21.4912486  40.1720333  24.1484952
  21.1939168  39.4473219  23.5983896  22.2989893  40.4729319  23.7322640
  34.3886447  31.9151878  19.5293331  34.1128206  31.3382626  20.2415895
  33.9201093  31.5883660  18.7612867  26.3319373  48.6996841  25.5307961
  26.9610357  49.3437529  25.8558154  26.8500996  48.1186390  24.9739027
  69.5799398  75.4899979  54.7758579  68.9994192  75.7654572  55.4853296
  70.4386759  75.8339643  55.0218201  16.0237288  19.1373229  25.0341320
  15.1497030  18.9690340  25.3862548  16.5162122  19.4913208  25.7746577
   3.4367782  23.4318519  19.4548869   3.2259706  22.9020381  18.6860645
   3.0040157  22.9829216  20.1811147  18.7844110  66.6967392  26.9677901
  18.6719716  67.5737810  27.3343778  19.7205019  66.5179539  27.0572472
  28.1258273  22.2991800  53.9811659  28.0969763  23.2483816  54.1012335
  28.2238984  21.9486475  54.8664570  79.8568535  61.3243246  14.6471107
  80.1421738  62.2379351  14.6590400  79.6579885  61.1474991  13.7276447
  28.2683897  37.9474783   2.7519715  29.1546607  38.3038592   2.8131703
  27.9714561  37.8866911   3.6599186  28.9225888  38.9296317  35.7462740
  28.3461976  38.1738281  35.8592415  29.2613220  39.1058373  36.6240239
  34.7803164  25.8021259   7.9500204  35.4084802  26.3706088   7.5045198
  34.0292239  26.3682032   8.1279224  36.8269682  20.7809067  18.7156570
  36.4786124  20.2832603  17.9759085  37.5530553  21.2831306  18.3457923
  23.0582333   3.8014489  12.2119176  23.5822630   4.3660957  11.6437650
  23.3199716   4.0457451  13.0996370  22.3222709  32.2057343  15.4750335
  23.1089020  32.7272701  15.6345522  22.3762512  31.4907670  16.1091769
  75.1002789  75.4545879  39.0992308  75.5522490  75.8634901  38.3611584
  74.3502474  75.0099850  38.7042403  30.5368972  20.4956961  41.3844824
  30.8847594  19.6782207  41.7407942  31.1038280  20.6923437  40.6387281
   9.6185672  35.5372190  15.2165914  10.2007604  36.0698867  15.7583928
   8.9040893  36.1285639  14.9798119  48.0135822  14.2451453  14.1287386
  47.1869040  14.5464826  13.7518704  47.9982185  14.5686901  15.0294685
   1.0367898  19.9341726  53.7346506   0.6877148  19.0499794  53.6224842
   0.3055875  20.4365373  54.0941000  40.4370546   2.3791429  30.2552271
  40.9020853   2.2649273  31.0840392  39.9731469   3.2106280  30.3534889
  47.7620697   2.5051242  23.6559629  47.3301363   2.5048247  22.8017616
  48.2955265   3.2998908  23.6543274   5.8691192  25.5628181   5.0864679
   6.7712766  25.4612541   5.3898287   5.5031276  26.2462115   5.6479436
  39.4090581   9.0193939  25.6127191  38.4997082   9.3157691  25.6511474
  39.8124933   9.3813848  26.4016652  40.9996414  10.2172971  27.8098392
  41.8008566  10.5268157  27.3873734  41.2034225  10.2255821  28.7450600
   0.4137088  67.9297876  31.0261703  -0.1691433  68.6522055  31.2599015
   0.1399937  67.6768541  30.1445031  32.3852515  33.4542465  11.1755168
  32.3112297  34.4083643  11.1957216  33.2888365  33.2785058  11.4379764
  67.3531961  36.8090987  61.9934702  68.1348610  36.3754773  61.6511202
  66.9534683  37.2217202  61.2278414  36.0538793  26.5392327  30.9065652
  35.3060699  27.1012974  30.7038355  35.8298707  26.1357856  31.7451835
  21.2002516  17.3945296  35.4134417  21.9464183  17.1770406  34.8547220
  21.5841079  17.8655207  36.1530709  31.1403346  34.8609471  20.9030604
  31.9713759  34.8597622  20.4280853  31.3877773  34.9923134  21.8183470
  35.1420498  11.4244568  41.8376637  34.8496199  10.5635536  41.5383911
  34.5279121  12.0390165  41.4359379  38.0481839  26.7264962   9.1923666
  38.5790110  27.4425006   9.5413548  37.5178814  26.4374924   9.9349886
   1.1231094  73.7270403  38.1873584   0.3059170  73.2507324  38.3341956
   1.7153840  73.0761385  37.8108358  29.8372221  26.7035127  25.7742381
  30.5940247  27.1537375  26.1494422  29.5331693  27.2856903  25.0779223
  19.8383129  17.4242187  14.7931147  19.0438890  16.8909800  14.8210013
  20.3260970  17.0881331  14.0412211  23.6426544  31.2873673  34.4088745
  22.7833438  30.9201646  34.2015600  23.9275169  31.7042112  33.5956550
   6.5843040   5.8560681  17.8292644   6.7878526   4.9670911  18.1199884
   6.5932149   5.8034533  16.8735540   4.4194266  17.1313739  14.2496383
   3.8116947  16.4990425  14.6331108   4.8808959  17.5055611  15.0001466
  23.0135393  34.2519116  23.5591197  22.0715880  34.3392491  23.4130573
  23.3551598  35.1401973  23.4567761  23.4365249  32.2209978  39.0045333
  23.1460619  32.4374866  39.8905325  23.3687115  31.2674093  38.9565444
  38.2038927  10.5446517  34.0679646  38.7330937  10.6946242  34.8513460
  38.8435745  10.4280114  33.3655143  16.6014302  25.6613779  32.5589824
  15.6864595  25.8683896  32.3687005  16.5916026  24.7362995  32.8046799
  15.5319762   9.2955053  29.5710707  16.0468400   9.9223781  30.0791812
  15.1406300   8.7191427  30.2274895  10.3313673  45.6535339  24.6777010
   9.6945614  46.2242746  24.2476225  11.0886669  46.2168694  24.8370290
   4.7450274   8.7404495  39.0767336   4.1775897   8.7796015  38.3068538
   5.0228840   9.6458203  39.2157698  25.6751394  19.6800232  30.3494883
  25.2468824  20.4411173  30.7413626  26.5868878  19.9492729  30.2379155
  25.4340625   6.9862998  38.0766606  25.2087212   6.1466175  38.4771442
  24.8937011   7.6257050  38.5407758  27.1273494  11.0162497   9.6504474
  26.4812827  11.1877441   8.9653075  27.6010323  11.8426096   9.7452396
  31.1462092  19.7088170  44.7924662  31.0633421  19.0685928  44.0857267
  31.5827465  20.4579949  44.3870020  10.6278789  69.8585320  35.3790855
  11.0662079  70.7076263  35.4350781  11.1583304  69.2786551  35.9255242
  29.3600583   8.9814901  23.2828522  29.7495317   8.2291043  23.7283373
  29.3040872   9.6572530  23.9584589  20.6611037  40.8014584  20.9621072
  20.2263880  40.1048136  21.4539814  20.0274634  41.0510302  20.2894688
  16.1777556  21.7453265  22.7010798  15.8732605  21.2857056  23.4835505
  16.0476971  22.6721478  22.9018855  24.7147489  23.6249614  46.7509079
  24.5559120  23.3622503  45.8442736  25.0567484  22.8364992  47.1723318
   1.7884895   8.4917754  60.5296850   2.3139858   9.2915589  60.5504751
   2.0752898   8.0372673  59.7376013  41.4383841  17.4026191  21.5359497
  41.2238836  18.3145976  21.3396978  41.9703388  17.4473226  22.3304653
  23.3415341  35.9680080  13.0644989  22.8582907  36.2967157  13.8225627
  24.1832948  36.4221907  13.1017268  31.7323351  47.0033646  27.9853129
  31.8995261  47.9457664  27.9977846  32.4289417  46.6293669  28.5248470
  13.1077456   6.1780757  41.6838646  13.4155083   5.4904091  41.0934162
  13.8018656   6.2606400  42.3377895  35.0612140  41.7400455  37.0573688
  34.9261999  40.7930326  37.0916319  35.6790757  41.9196844  37.7660370
  22.8603482  18.8859713  28.5488296  22.7450919  18.6650848  29.4730353
  22.7674937  18.0512297  28.0896831  41.8126535  11.2961733   7.2425622
  41.6301107  11.8520260   8.0001491  41.0461092  11.4003277   6.6788244
  15.3965151   2.7741793  21.3791108  15.0285709   3.6295351  21.6009569
  15.4536963   2.7785608  20.4236293  33.7815261  12.7582896  18.9158857
  34.6844292  12.7170253  19.2309952  33.2862568  13.1135046  19.6539664
  37.1394968  29.5311356  18.9173925  37.6359606  30.1763749  18.4139824
  36.9998932  29.9469972  19.7681582  24.1182017  34.9627662  30.8668065
  24.6538043  34.5192504  30.2090406  23.3176184  35.2039480  30.4008365
  40.8621073  10.8960545  40.0165367  40.8857203  10.1260054  40.5846024
  40.6756544  11.6247678  40.6085205  26.3264608  23.7383795   2.3822641
  26.9903469  24.1835332   2.9088816  26.8279052  23.2213831   1.7517884
  36.0749578  24.3077803  18.2543015  36.5371990  24.9653625  17.7345407
  36.6479945  23.5412931  18.2352829  53.3018589  11.0473192  65.3831244
  54.2487621  11.1250746  65.4995918  53.1953955  10.3283596  64.7602367
  17.6605892  31.2498593  19.8079026  18.0182850  31.4503455  18.9429796
  17.0501852  30.5289054  19.6534145  13.4236062  37.2148275  41.5837955
  13.2896733  38.1354928  41.3586950  13.1224453  36.7335773  40.8131266
  80.3919029  60.7546329  17.1989441  79.9843931  60.9525537  16.3557363
  80.9552383  60.0013161  17.0217621  31.3556099  31.2808394  30.7115912
  31.0138249  31.7768049  31.4555216  31.1254120  30.3718090  30.9036899
  26.8286347  14.4880342   5.4796100  27.4786854  15.0541842   5.8957106
  26.2489200  15.0908780   5.0140560  36.0069013  17.7962852  35.5000496
  36.7792463  17.2354281  35.5718327  35.8787251  17.9079831  34.5580697
  46.0726452  11.6267979  17.6891148  46.0767651  10.7545877  18.0834067
  46.8949318  11.6730177  17.2013211  25.0310779  47.6847696  19.2229080
  24.4565010  47.0069456  19.5787907  24.5046520  48.1157112  18.5495615
  27.3683858  36.9169497  36.2942743  26.4907336  37.2775769  36.4204001
  27.2858596  35.9950495  36.5382409  26.8853211  23.9717317  17.0227289
  26.2640858  23.2593989  17.1739912  27.7292204  23.6169958  17.3024249
  42.4465513  23.8713479  20.7527614  43.2159901  23.7358332  21.3057852
  42.8048229  24.1195107  19.9005365  27.3635077  43.5506344   8.8880843
  26.6983032  42.9492617   9.2228758  26.9457793  43.9775085   8.1400758
  25.1241422   1.4632954   6.5886134  25.6070828   0.8792412   7.1733183
  25.8031774   1.9567837   6.1286008  37.2956944  44.4494057  32.9383969
  37.1999764  44.3750191  33.8878918  36.4522886  44.1612053  32.5893402
  73.4652901  68.7681866  19.8885405  72.8468752  68.0451918  19.7833097
  73.4826136  69.1951370  19.0320086  67.2990274  69.1078377   9.6052718
  66.5811300  68.5966587   9.2317009  66.8975401  69.5937014  10.3256738
  43.5652304  22.2553539  12.1905768  43.1573105  22.2126341  11.3257015
  44.4912815  22.0760632  12.0277417  27.2126412  19.6675801  25.7094979
  27.2154212  19.2995572  24.8258781  28.0197787  19.3413115  26.1073828
  38.8211536  22.0482993  17.4301624  38.8815904  23.0034637  17.4146867
  38.4374118  21.8188429  16.5838027   3.5180974  73.0154037  26.9316411
   3.0697018  73.8610649  26.9371080   3.0247244  72.4786854  27.5519228
  33.6296034  23.3999681  39.5370460  33.6380672  23.4379911  38.5806370
  32.8745151  23.9305282  39.7911668  11.5405190  17.1157396  21.4720941
  11.6212797  16.4189303  20.8208156  10.7041419  16.9435716  21.9046021
  28.1523442  21.2040591  30.0154829  29.0223694  20.8147168  30.1032257
  28.1836414  21.6751885  29.1828442  15.8934546  13.6259830  47.4598551
  14.9816906  13.3787310  47.3056316  16.3143647  12.8179657  47.7534151
  23.9280939   6.6937345  29.9659085  23.5050511   7.2123349  29.2815709
  24.8534060   6.6834426  29.7211099  13.3184075  72.1403265   7.3548043
  13.1491494  71.8073845   6.4734805  14.1424477  71.7272234   7.6127422
  40.5737448  34.2484069  26.3328266  41.3059044  33.9712644  26.8836117
  40.4467726  33.5235882  25.7206583  55.2523613  40.2261734   3.5823983
  55.1340818  40.9462452   2.9629281  55.2180862  39.4370317   3.0417413
  25.1175833  21.9599724  16.6736615  25.5944681  21.2662125  17.1291971
  24.5632529  21.4969444  16.0455251  32.7304888  45.2075195  35.6208372
  32.5179744  45.0110054  36.5332246  31.8832278  45.2238894  35.1757407
  28.0880141  38.5939550  12.3333549  28.5595465  38.2879186  11.5586078
  28.6021352  38.2666755  13.0714595   5.6963730  23.5785270  17.9518652
   6.0730129  24.4245577  18.1939507   4.8695308  23.5381341  18.4324193
  30.3203225  13.5590017  36.1641693  30.9523010  14.0643120  36.6755366
  29.9423385  14.1938615  35.5556345  19.6963513   5.3260851  28.1859493
  20.3003979   5.4165834  27.4489474  19.1290271   4.5946652  27.9422283
  34.0402794  24.3927431  26.6541362  33.7720323  24.5105553  27.5653982
  33.6893511  25.1589131  26.2001944  20.2291679  23.8710928  33.2256222
  20.6367040  23.3075309  33.8833046  19.3005729  23.6407042  33.2550240
  12.2432327  18.7214792  35.7234001  13.0004227  18.9674830  35.1920080
  12.5774884  18.0533373  36.3218093   5.7175702  34.7600913  35.0522637
   4.8658535  34.4266868  35.3344917   6.2046826  33.9796352  34.7879863
  35.9618688  23.0280519  46.9318485  36.1554623  23.8899279  46.5631723
  35.1789927  22.7377009  46.4638376  45.4494524  17.5283778  52.8259468
  45.5579567  16.5819395  52.7326107  44.6391869  17.7241194  52.3554325
  34.4770622  17.6481867  25.5539680  35.0629377  16.9942474  25.9352088
  35.0490499  18.2005703  25.0211096   1.2494864  67.8060436  18.6388850
   2.1689844  68.0715704  18.6547744   0.7789852  68.5890532  18.3529496
  23.0563807  23.9543581  39.0209770  22.4890900  23.3327651  39.4770861
  23.9024305  23.5101461  38.9652348  52.9790068  15.4950881  39.9394441
  52.1652317  15.1248121  39.5975518  53.6432171  14.8337543  39.7452831
  56.2908840  52.5937605  65.5507660  56.5213966  51.8178988  66.0617781
  55.7794762  52.2537374  64.8165512  40.1787329  19.8123038  29.7358584
  40.6393957  19.3372881  30.4275084  40.4070139  20.7302046  29.8827457
  52.6723814  11.8183601  24.6030426  52.4768734  11.5020049  25.4850459
  52.5264215  12.7632177  24.6496582  49.7503662  16.0626590  33.9800429
  48.8190699  15.8546448  34.0552068  49.8297071  16.9426298  34.3482661
  28.9973879   3.2945859  41.3927126  28.4107900   4.0339857  41.2332630
  28.4858274   2.6960713  41.9370651  51.4669323  72.3848867  64.1837978
  52.0811510  73.1153059  64.1099453  50.6051922  72.7833271  64.0617895
  43.1236792  30.0840950  10.9285486  43.9048672  29.5920539  11.1812782
  42.6712847  29.5129395  10.3077841  59.9104071  66.7359114  22.4382281
  59.0660238  66.5567350  22.0245314  60.0735378  65.9713650  22.9905772
  38.9246988  35.5345774  14.6152139  38.2341814  35.6320953  13.9595413
  39.2415404  36.4255309  14.7636998  32.6592827  20.0647140  18.3381045
  33.3085513  19.3730211  18.4655607  32.8423262  20.4067326  17.4630332
  45.0381708   3.6608130  14.9667931  44.8702908   4.0127140  14.0925992
  45.5682993   2.8789023  14.8124897  51.1954880  65.3962708  29.9633312
  50.3923988  64.9854612  29.6431565  51.5494919  65.8557510  29.2018914
  15.2857709  13.5775483  37.1482325  15.3945041  14.4947970  36.8971038
  14.9455094  13.1524110  36.3610148  47.4802065  23.8329268  18.7927079
  48.1587362  24.2371798  19.3334544  47.3970938  24.4153214  18.0376315
  43.7065458   0.9171263  11.3861775  43.2725716   1.7667235  11.3081884
  43.2741165   0.3664798  10.7334709  24.9702883  38.4179735  29.7751284
  25.3867960  38.1579137  30.5967855  24.2897725  37.7600360  29.6328282
  24.8946452  71.1588430  16.8151724  25.7193804  71.4036179  17.2348511
  24.3137598  71.9022608  16.9768310  12.0714128  64.6377563  10.3816426
  11.1554813  64.3871212  10.5019891  12.0982981  65.0366211   9.5119220
  23.2599473  16.3631511  27.6953435  23.7201118  16.9377148  27.0834970
  23.7680221  15.5519378  27.6903820  42.6184130  14.0972984   3.2045704
  42.1485329  13.2995737   2.9615059  42.6853228  14.5937967   2.3889455
  14.6864116  15.7950342  55.6074095  14.2423999  16.4662516  56.1256313
  15.3982508  15.4900205  56.1699820  24.6059370  45.4866982  64.4095278
  25.4014564  45.1311493  64.0133381  24.8174763  46.4023876  64.5911884
  37.6075697   4.7891295  44.6177483  37.1439123   4.1967764  44.0258265
  37.1261430   4.7284952  45.4428434   0.9171499  13.4526789  64.5018578
   0.5753698  12.7645195  63.9310217   0.8303033  13.0957496  65.3857660
  17.6470160  16.0010099  15.7887208  18.3090961  15.7183957  16.4196026
  16.8367672  15.5916190  16.0922468  49.9904394   3.8717565  20.7920265
  50.2166605   4.5655739  21.4114380  50.4595852   3.1016785  21.1131406
  15.2307212  28.0979323  57.3046827  15.6140053  27.2879457  56.9681597
  14.8161864  28.5016179  56.5421629  64.6918726  25.1220870  12.8140092
  64.0720892  24.9661493  12.1014225  65.4092264  24.5111489  12.6455045
  50.3805256  10.9369302  22.3297215  50.6838036  10.1284063  22.7426934
  51.0917902  11.1857927  21.7394638  56.8928957  36.8992400  62.4299860
  57.2319460  37.7923346  62.3695183  55.9499550  37.0088267  62.5528097
  28.3770990  21.5326428  15.2333081  27.9220915  22.0765829  14.5904005
  27.6802897  21.1894083  15.7926655  45.5875349   8.7386179  19.2268431
  46.1618090   8.2075274  18.6751366  44.7869492   8.2202530  19.3080473
  23.2708025   4.1431752  14.7447395  23.9605355   4.8056671  14.7847891
  22.5252628   4.5464253  15.1894784  50.7964039  30.7017517  14.4430661
  50.9388876  30.3319740  13.5717487  51.5243053  30.3674221  14.9671042
  11.7383707   1.2751023  21.9046545  12.4322009   1.6068161  22.4745631
  11.8034816   1.8086027  21.1125875  23.2379866  30.4806590  43.3896542
  22.6611233  30.1014233  44.0527105  23.8572240  31.0141826  43.8877821
  35.4602647  11.0375965  12.4124956  35.1658940  11.8261003  12.8683889
  36.3755250  10.9372532  12.6741457  42.5065231  11.1597967  36.0086322
  42.9991674  11.1490691  36.8292499  43.1704569  11.0426700  35.3291416
  49.7445774  65.9013844   5.1439828  50.1385069  65.3250933   4.4890499
  49.9527931  66.7853308   4.8414671  43.7064743  34.2780566  30.8887863
  43.7042809  33.9143896  31.7742085  43.9444780  33.5402060  30.3273916
  11.1823010  51.1975622  34.2742729  11.4342666  51.8066549  34.9683547
  11.8310714  50.4955578  34.3244958  36.7037439  59.5718527  38.5331631
  36.5934968  59.1298914  37.6912928  35.9129381  60.1022959  38.6305785
  36.8942595  30.3582191  30.0206304  36.9402099  30.3149056  30.9757447
  37.6877379  30.8279228  29.7637200  24.5822597  33.3071256   2.6048547
  23.8788867  33.5811949   3.1933987  24.8500681  34.1116524   2.1607278
  15.9046185  34.7086930  13.3085537  16.2056994  35.3744221  13.9269280
  15.9276605  35.1449895  12.4568808  28.4794760  31.5739059  29.2417049
  29.1071558  31.7508554  28.5410357  27.6340604  31.8370175  28.8780069
  29.0948248  23.1077790  19.6732688  29.6392274  23.2566571  20.4463768
  28.6391568  22.2860336  19.8558366  40.3192949  30.2842307  22.2387481
  40.7293224  30.2946687  23.1036210  40.0149727  31.1821675  22.1071076
  39.2047286  22.7912879   6.2555337  39.7287536  23.0214953   5.4883087
  38.3144855  23.0580735   6.0263520  30.6003761  41.2755728  37.6365399
  29.8422456  41.3408136  38.2172418  31.2023497  40.6882620  38.0936265
  42.9088211  26.9934201  30.5468369  42.1425343  27.5155115  30.7844400
  43.4830141  27.6061535  30.0873876  39.0241861  27.2162843  31.3742781
  38.9861012  27.0625496  30.4302716  38.1523490  27.5409985  31.5994310
  37.4792957  18.3147156  27.9737163  37.4409175  19.2022574  27.6173067
  38.3769393  18.2235730  28.2933450  41.1821651  18.5864699  45.2702236
  41.1484957  18.2821584  46.1771393  42.1165657  18.6704898  45.0803137
  41.8409157  32.1530652  27.3884130  42.3120832  31.3840294  27.0677614
  41.0043240  31.8083978  27.7007365  16.2665653  43.3434391  36.5685391
  15.8839464  43.1892109  35.7047987  16.4302480  44.2862225  36.5931177
  28.3032131  39.6401954  25.9744167  27.5162554  39.4164228  26.4712620
  28.3498526  38.9753151  25.2874017  31.5369296  64.8188639  27.8700471
  31.0115480  64.0661669  27.5986481  32.4233770  64.6112728  27.5744987
  25.7473183  36.9628215  31.8791699  25.1993275  36.3616705  31.3746333
  26.3616991  36.3943863  32.3435521  11.9496715  75.8423901  28.4383845
  11.0747802  75.8159494  28.0509591  12.3724639  75.0408745  28.1300807
  29.3999076  19.9563038  34.1891932  30.1186013  20.4172325  33.7564611
  29.3162084  19.1348493  33.7050056  19.0481889  30.4126215  40.2174425
  19.9824023  30.5153847  40.0360107  19.0092492  30.1681328  41.1420727
  35.0853658  28.7363577  17.2613633  34.4618154  28.2715678  17.8193808
  35.7628727  29.0437579  17.8636277  31.7114568  22.7526093  18.3761168
  30.8639956  23.0930519  18.6627185  31.6977477  21.8301725  18.6313772
   3.7744668  26.0296345  53.0329847   4.4610685  25.8954549  53.6862850
   2.9860204  25.6661272  53.4360313  73.5252523  51.5849638   3.5994953
  73.5541868  51.2630224   2.6985246  73.9869690  52.4229050   3.5693645
  29.4156837  29.4742560   7.1275717  28.6269116  29.7733140   6.6752040
  29.9911714  30.2390862   7.1365494   8.5601819  41.1256218  28.6820674
   9.3226588  41.5131855  28.2523513   8.7807351  40.1983976  28.7706614
  44.2528820  32.3809195  29.1577148  44.0849972  31.4589024  29.3524671
  43.6565971  32.5860310  28.4375715  28.7273335  44.7524405  35.2892399
  28.0733299  44.9731112  35.9524250  28.7539601  43.7956095  35.2881861
  35.8980465  22.3749995  26.8555379  35.2425599  21.8124628  27.2679973
  35.4177618  23.1682849  26.6183519  34.7147369  13.9860964  21.5180278
  35.5935025  14.3652058  21.5347600  34.6255803  13.5506141  22.3657537
  36.4719415  43.6435318  35.3836441  37.2163677  43.2197666  35.8108258
  35.7038903  43.2083511  35.7537103  29.0285969  22.7013993   8.2480180
  28.0969882  22.8456688   8.4139287  29.1385198  21.7524624   8.3085853
  41.8227816  28.9551139  24.6641970  42.2885084  29.2936015  25.4288912
  41.6058731  28.0521417  24.8961902  53.8891745  58.7188435  57.0301914
  54.2809629  58.4463120  56.2004519  54.6294880  58.7895918  57.6328182
  32.1130586  42.7600384  27.3765850  31.4971161  43.0155420  28.0632877
  31.7650914  41.9353199  27.0374727  11.5160275  39.4579601  19.0183735
  11.6556275  40.1357841  18.3570886  12.3275602  39.4476914  19.5258582
  14.1144776  39.9873114  19.8540115  14.8343563  39.9111938  20.4802799
  14.4733977  40.5132198  19.1392863  16.2225688  47.9293776  27.4024677
  15.3001177  48.1757641  27.4703741  16.3265657  47.6378775  26.4966846
  42.1005154  61.9663620  36.8621159  41.5829134  62.3709726  36.1659789
  42.5804234  61.2625599  36.4255548  34.2398381  36.5323067  30.5326295
  33.5202813  36.9657683  30.9915185  34.6095705  35.9318781  31.1799455
  17.9190457  36.1454082  33.4732413  17.8202426  35.7210827  34.3255424
  18.6951900  36.6973639  33.5690212  31.1273789  11.4196086  31.6560793
  31.2688947  10.6297266  31.1342645  30.9611797  11.0953403  32.5412130
  30.0297308  32.1797347  33.0683494  30.7392716  32.5154042  33.6161709
  29.4926262  32.9480267  32.8747535  40.9023046  20.2274776  24.5091057
  40.9636784  20.8314395  23.7690401  41.6666698  19.6585548  24.4179821
  38.1812763  29.4119430  26.2661815  38.0588698  28.6263299  25.7332110
  38.9950085  29.2525649  26.7443800  42.5467873  31.2676191  35.8552098
  41.7282629  31.3776946  35.3713346  42.8393221  32.1606445  36.0373116
  38.5075402  16.2029433  62.7476358  38.0391359  16.3744831  63.5645819
  38.5459137  15.2482831  62.6894617  29.6876311  62.4256039  22.5220466
  30.5291986  61.9696856  22.5104499  29.7381377  63.0402994  21.7900419
  40.7518721  34.0001082  19.2814791  39.8413801  33.8046217  19.0600741
  41.2033129  33.1597543  19.2024720  29.6213460  34.6042919  28.5699987
  30.3612995  34.1625071  28.9865637  29.3336582  33.9978862  27.8875494
  26.6373515  37.5961852  22.1321702  27.3430252  37.7080441  22.7691507
  26.9781852  36.9564795  21.5069985  13.3324206  39.4648457  22.6213527
  13.4661317  38.8319874  21.9157743  12.4009037  39.6804500  22.5763679
  46.4018059  35.6910396   1.0301285  47.2375059  35.2245092   1.0165356
  46.0955238  35.6602192   0.1237768  47.8780317  11.6056037  14.4723821
  48.1234789  11.4760375  13.5563040  47.7171993  12.5462782  14.5465064
  32.9040241  50.6528425  34.2356014  32.3786688  50.2301359  33.5562253
  33.1368017  49.9433565  34.8344970  22.6100063  11.8440926  15.5626488
  23.4929085  11.4875245  15.4647994  22.4728918  11.8878591  16.5089667
  36.5846395  33.2376337  20.4097080  37.0292473  33.3883309  19.5755351
  36.0299540  32.4738646  20.2509212  29.5184493  49.6983480   2.9532611
  28.8211250  49.1226196   2.6394048  30.2631283  49.1149616   3.0993551
  31.3034868  17.8014839   9.8113942  30.4006124  17.8794074  10.1195800
  31.4947748  18.6506450   9.4131905  28.7299776  14.9250484   2.6095515
  29.3300176  15.1189601   3.3296776  28.4838557  14.0096724   2.7427569
  17.5467658  31.6680789   6.7636591  18.0271840  31.0801554   6.1807567
  17.2800612  31.1133194   7.4966943  58.1365538  24.0609026  21.1695552
  58.4846306  23.9302540  20.2875090  58.5320950  23.3610964  21.6892195
  30.1497006  44.1437149  25.4755569  30.0929022  45.0531101  25.1822877
  31.0657477  44.0305948  25.7291102  18.8906014  30.0347090  34.6728706
  19.3502831  30.4247141  35.4163909  18.0071795  29.8647571  34.9998474
  36.1792541  35.9212756  14.3166673  35.6186533  36.6243076  14.6448493
  35.6758809  35.1218390  14.4707799  20.9120250  40.5382061  34.4231343
  20.5675006  41.1735725  33.7955666  21.0319281  41.0392284  35.2298760
  13.2318974  34.5728588  17.8584623  13.1795335  34.6174216  16.9037354
  13.7590849  33.7932801  18.0332923  24.5719671  52.5971985  12.2795248
  24.0706611  53.3892679  12.0857418  24.6187997  52.5712109  13.2352245
  27.6837015  35.6681061  33.2291365  28.5197949  35.9946394  32.8966379
  27.7331042  35.8031321  34.1754770  23.6083937  29.5437074   2.1885492
  22.8102016  29.3954492   2.6956415  23.3124828  29.5710063   1.2786457
  40.1424265   8.1956261  16.0329103  40.8336210   7.7958292  15.5050433
  40.5978203   8.5449576  16.7989480  70.4316950  62.5317574  14.1223538
  71.0848522  63.2282257  14.0549064  70.3010225  62.2378206  13.2208240
  46.1261606  66.3632774  13.4762466  45.7748127  65.7466745  12.8339195
  46.4315844  67.1050596  12.9540277  43.8628769  49.1402483  23.2365775
  44.0004826  49.8840809  23.8230991  42.9476690  49.2145395  22.9661965
  17.1713221  25.7236624  64.1035986  17.2155380  26.6118932  64.4576025
  16.2628615  25.6242371  63.8189125  44.9217796  47.6790571  21.0904980
  44.2486525  47.8749609  20.4387665  44.6939373  48.2262802  21.8420768
  54.5311117  69.1749954  32.7506328  53.6531878  69.3856335  32.4326539
  54.8446274  69.9888277  33.1451225  57.8361082  61.7873096  17.8812957
  58.7252855  61.4337540  17.9056549  57.4038458  61.4011097  18.6430252
  47.2422647  40.8395529   8.8591981  47.3595428  41.7812157   8.9846969
  47.5383043  40.6786251   7.9632664  45.9914875  61.5269470  30.6441712
  46.3639736  61.2612677  29.8033953  45.9200907  62.4795914  30.5841875
  41.1044693  54.4102478  27.6190376  41.4798784  54.0785408  28.4346771
  40.1707792  54.5062733  27.8067541  69.2905664  53.4519339  26.8564272
  68.5188437  53.8403130  26.4443088  69.2621994  53.7647438  27.7606273
  38.9844108  45.8647394  37.3035479  38.8800168  46.8086481  37.1836972
  39.0983367  45.5219030  36.4171410  47.0460558  53.6293125  16.8303490
  46.3282204  53.6452055  17.4633503  47.7724361  54.0599346  17.2810900
  37.1061563  69.9092674  24.5196033  36.3804960  70.2681112  25.0303674
  37.8739452  70.3956747  24.8198366  47.4504852  58.7713957  14.0989852
  47.4900246  59.1445971  14.9795461  48.3645773  58.7187624  13.8198864
   2.1210869  27.1458459  61.5673876   2.4689874  26.5112352  62.1938610
   1.9577917  26.6349483  60.7745790  39.1203737  49.8901224  34.1304684
  38.1740642  50.0094557  34.0499067  39.4593501  50.7696152  34.2972541
  40.2917719  74.7314835  35.9039974  40.7830238  74.3222475  36.6163397
  40.5741549  75.6460428  35.9128237  37.9724979  51.3518095   7.5500989
  37.1303487  51.7896795   7.4264503  37.7469397  50.4999876   7.9239357
  52.1303988  61.3832998  22.6233554  51.4263391  60.9828758  22.1132612
  52.4272585  60.6872082  23.2094955  44.7768831  74.2594671  29.1064215
  44.8879862  73.6462641  28.3798790  43.9116430  74.6437597  28.9653111
  79.2955017  55.9241581  53.8198185  78.9584780  56.7496490  53.4716654
  80.2471256  56.0124588  53.7664938   3.9757964   1.2483467  35.5081534
   4.4649875   0.7410900  36.1559296   3.4388092   0.6002498  35.0522518
  75.4098225   5.3603667  40.3622627  75.1535034   5.9858876  41.0399437
  76.2962627   5.0934541  40.6056070  57.5374985  60.5276728  22.9801965
  58.0705833  60.9262085  23.6681080  57.1570969  59.7514963  23.3913803
  60.9839010  55.5040455  23.3110905  60.6788015  55.0151539  24.0753746
  61.3734055  56.2990236  23.6751390  70.9820080  55.7921219  31.0699153
  70.8372736  56.4119291  30.3549910  71.9297647  55.6586409  31.0830045
  65.1386642   2.3537424   5.6866455  64.7261810   2.0951435   4.8624980
  66.0053158   2.6702514   5.4317582  19.4122243   2.8677696   2.3969615
  19.0245199   2.4021892   3.1380093  20.3441525   2.6536790   2.4406502
  49.5239830  67.6396275  10.1513600  50.4184437  67.5017166   9.8396671
  49.5937014  67.5985479  11.1051333  72.4989176  57.0994139  38.0714941
  71.9508266  56.9958591  38.8493776  72.6721096  56.2043953  37.7796483
  65.5974007  55.7309151   4.7904211  65.9095812  55.3174114   3.9855683
  66.0953760  56.5462399   4.8495364  60.0965405  61.3101673  39.9792933
  59.3144608  60.7585430  39.9963617  60.8165312  60.7000446  39.8193121
  42.8397417  60.4909515  27.2917342  42.6167345  61.0488224  28.0369020
  42.0800352  59.9184561  27.1853137  74.7935963   1.8196246  36.6218519
  75.3110838   2.2268003  35.9271288  75.2060270   2.1164520  37.4330401
  64.7947168  73.7631083   5.1396990  65.7415915  73.8674021   5.2334011
  64.6924305  73.1392288   4.4209892  57.6887798  59.9321508  39.9536562
  57.2585630  59.5087671  39.2107582  56.9933081  60.0427437  40.6019783
  62.4285889  57.6447773  19.8371243  61.8079185  57.0139742  20.2019477
  62.0820427  58.4987497  20.0957084  49.1829538  59.5313549  25.6818104
  48.6212730  58.8233185  25.9971404  48.8758039  59.7023010  24.7914910
  68.8411713  65.8777905  25.2100086  68.6145115  65.9571123  24.2834187
  69.3796492  65.0878763  25.2580905  61.4678240  58.8439846  25.0473785
  61.0678577  58.7579060  24.1820192  62.4098635  58.8232422  24.8789668
  37.3033309  47.3767614   2.2432359  37.0572448  46.7979431   1.5216798
  37.2873235  48.2546902   1.8621668  79.2611313  64.6836138  17.1161294
  79.0970755  64.1912270  17.9204118  78.5953426  64.3707180  16.5037131
  58.4487963  67.9846430  35.5614376  57.6104164  67.6674032  35.8971620
  59.1050529  67.4690056  36.0301375  67.5320482  60.9946012  36.2807107
  67.1737432  61.1218548  37.1591496  68.3286476  60.4821825  36.4188766
  49.2449522  46.8680239  20.3886938  48.3751297  46.4684820  20.3872800
  49.0765762  47.8081799  20.4518318  63.7397623  71.6532230   3.4003454
  63.6059475  71.0621452   2.6594314  62.9712534  72.2238111   3.3933789
  76.2762213   2.6282459  39.3834448  76.7881918   2.9514048  38.6420345
  76.3842344   3.2976761  40.0590372  44.1947937  45.5756092   5.4882324
  43.9348173  45.2196312   4.6385711  43.6690617  45.0887489   6.1228991
  71.8052149  74.4154644  26.1556125  72.1810532  74.5507479  25.2857399
  72.5590038  74.2320776  26.7163301  65.4037428  59.8912239  38.2604289
  65.0390816  60.6905460  37.8805113  65.1401567  59.1970491  37.6563787
  81.7267990   7.3695362  28.3792400  81.4630985   6.7320764  27.7156591
  81.9101906   8.1682360  27.8845906  59.7144079  68.5426569  12.2619772
  59.6639204  69.4096279  11.8594348  60.5479527  68.5452461  12.7325392
  54.3343306  66.7686272  43.8462734  55.0416517  67.4092531  43.9206076
  53.5483408  67.2482157  44.1078901  12.0388234   3.8150197  44.3681049
  12.9403090   3.5385531  44.2034149  11.8784273   3.5772696  45.2813292
  63.7520838  71.9444990  24.8768091  64.3188143  71.1733198  24.8949122
  63.4436369  72.0362759  25.7782912  44.0722084  51.3802433  11.7917240
  44.3048573  52.3087406  11.7940938  44.4429016  51.0383701  12.6053202
  47.3930645  46.4029741   4.2823580  46.5633774  46.7477989   4.6124259
  48.0622864  46.8655729   4.7867131  18.5852766   2.0278963  21.9099689
  17.7506077   1.5596455  21.9273043  18.6566591   2.3570983  21.0139990
  63.8055325   4.0862876  48.1814814  63.2801104   4.8861903  48.1636429
  63.6612272   3.7243855  49.0558004  67.1272373  26.5142632  25.8664560
  68.0237150  26.4789939  26.2000942  66.9449472  25.6210232  25.5746984
  33.5234737   0.5065925  32.7862406  33.9984870   0.1738646  33.5477448
  33.4496665   1.4480513  32.9425740  63.2717943  75.3854609  37.6869202
  62.6888466  75.5458736  38.4289932  64.1338253  75.6655884  37.9946017
  49.2799997  52.6321840   9.5143694  49.2904282  53.5799885   9.3809789
  49.5971823  52.5127935  10.4095626  76.2639236  71.6385126  23.5472965
  76.5744734  72.3384619  22.9729629  76.4837217  70.8315134  23.0818129
  62.6553392  47.4425983  18.8276327  63.4042168  46.8466187  18.8124800
  62.7685308  47.9490614  19.6319437  60.9366941  59.9501801   9.3214983
  60.2597427  60.2227020   8.7020624  60.4592800  59.4860029  10.0091386
  64.0137243  59.2032766  24.1751766  64.1108894  58.3394289  23.7744856
  64.3901587  59.8077202  23.5355020  58.3723831  56.7202425  27.8991222
  58.6039925  57.4593115  27.3366594  58.4717226  57.0566893  28.7897205
  57.5877333  73.5757208  57.5716972  57.7310181  73.9865112  58.4243107
  56.6740465  73.7700033  57.3627472  36.4031053  69.1051579  20.4386640
  35.5509448  68.9795351  20.0212049  36.6664958  69.9894857  20.1840615
  39.3248701  74.6173525  16.2836647  38.4749126  74.5107079  16.7107868
  39.6319056  73.7230682  16.1346090  73.4451103  63.5631514  40.9877110
  74.1106558  63.2421494  41.5961838  73.8696432  64.2881680  40.5290651
  56.6735983  52.7256107  19.3785548  56.0342932  52.2061491  19.8660803
  56.5717554  52.4401617  18.4706020   0.2114153  70.2151585  20.8205628
   0.1473383  70.5019283  21.7315459   1.1444826  70.2752590  20.6156111
  58.8925362  61.9042015   1.0810329  59.7629499  62.3004723   1.1208072
  58.4565353  62.3558712   0.3584459  59.7885275  55.6981659  35.4399920
  59.2317295  55.3682661  36.1452436  60.6495094  55.3194475  35.6175113
  76.8143559  72.2943735  26.5545058  76.1795616  71.9714165  25.9150004
  77.0375967  71.5257835  27.0795488  41.5158510  64.9422979  25.9290147
  41.6766834  64.2592955  26.5800667  40.9713030  65.5841637  26.3847637
  47.5392437  58.8956118  42.7051544  46.7158556  59.0678024  43.1619024
  47.4874544  57.9723454  42.4579144  75.9530210  15.4255354  17.0141554
  75.4156065  16.1980355  17.1892667  76.1362314  15.0600266  17.8796422
   8.7298852  46.1515331  28.9236426   8.7775433  46.9964647  28.4763718
   8.7884152  46.3693285  29.8538947  21.9740129  66.4800787  34.7225022
  21.7332649  67.3259687  35.1003075  22.2060227  66.6801167  33.8156462
  63.1155682  59.1482592   8.1177258  62.8223848  58.2868958   7.8205240
  62.4385595  59.4330645   8.7315476  60.0637960  55.3019571  26.2335253
  59.5288658  55.9590483  26.6788459  60.7492208  55.0831938  26.8648481
  55.6783009  55.7828093  35.5849767  55.8898926  55.0982380  36.2196612
  55.0458670  56.3413143  36.0370016  35.0562143  64.5688772  16.3620532
  34.4939089  63.7959576  16.3107228  35.8262563  64.3398428  15.8416581
  50.8303261  59.6179342  17.5910044  50.9862232  59.0879345  18.3726883
  51.5696907  60.2251625  17.5619709  50.6564665  40.3004313   2.2370474
  49.7984600  40.6849146   2.0575286  51.0562992  40.1934290   1.3739626
  57.2190952  68.7760353  31.0104609  56.9525051  68.4729004  30.1425481
  56.4035130  69.0517664  31.4288235  81.1377716   1.5156598  16.8089187
  80.5661678   1.5243345  16.0411775  81.8551922   2.1065593  16.5800726
  41.7681837  66.7085838  41.8365145  41.6246891  66.6796446  40.8905745
  41.1516237  66.0684824  42.1919870  48.3575249  70.3386116  27.6441216
  47.9534340  69.6498632  27.1163249  48.3708000  69.9828100  28.5326385
  66.2734890  16.9743228  16.1095119  66.2073374  17.5008905  16.9061196
  65.7160950  16.2145364  16.2776589  47.1526432  23.9814901  62.5432539
  47.1033859  23.2105756  63.1084919  47.7710819  23.7350726  61.8554688
  38.5363317  43.2356501  19.4400132  37.8418422  43.5859013  19.9979031
  39.3324423  43.6684990  19.7483635  73.2569885  52.9409599  40.1924038
  72.6491690  53.6765623  40.2677488  72.6987839  52.1642590  40.2294874
  59.4706249  60.4932594  34.1569042  59.2580128  59.7257710  34.6879268
  60.0455952  60.1570463  33.4694409  47.4173737  65.3548384  51.6691542
  46.6056252  64.9146032  51.4171982  47.9422426  65.3658819  50.8687687
  55.7317114  53.3076715  16.8097138  56.5241003  53.7545872  16.5120196
  55.1074648  53.4244347  16.0935366  68.7500143  43.0089521  54.4129610
  68.8679552  42.6363516  53.5391760  69.6380758  43.2046938  54.7117329
  64.6458101  66.3215113  23.1096125  65.0090408  67.0007992  22.5413990
  65.4080057  65.9429836  23.5478020  76.4355850  61.0867167  23.3016229
  76.8057775  61.8647385  23.7185979  76.6330194  61.1966038  22.3714757
  56.4746141  65.7773209  37.0097876  57.1969032  65.6925774  37.6321554
  56.4377117  64.9286222  36.5686774  47.9429293  36.4699006  63.2520866
  48.8162851  36.8574476  63.1947613  47.3658657  37.2078538  63.4486961
  63.9143229  12.2538173  20.7960773  64.6866369  12.0627558  21.3282967
  64.1835117  12.0481133  19.9008381  51.1609221  63.9303112  16.5642333
  51.5323257  64.3908024  17.3167217  51.4554310  63.0254698  16.6679299
  54.0071106  48.9746094  13.7855637  53.3574772  49.0420723  14.4853175
  54.2289686  48.0440235  13.7536192  50.1045656  61.7263269  30.9698796
  49.6007299  61.2104368  30.3404021  51.0010147  61.4024639  30.8819914
  46.9478512  60.5956411  28.3794951  46.4285421  59.9813175  27.8606892
  47.6523590  60.0623798  28.7476420  65.6754398  57.6999426  10.3706276
  65.4784489  56.9059277   9.8736674  65.6579542  58.4008646   9.7189891
  60.6938982  61.9937229  31.5827012  59.8615932  62.2349644  31.9892716
  60.6722212  62.4159193  30.7239151  16.9075751   8.3899331  38.4700274
  16.4720261   8.7582427  39.2387128  16.3664508   7.6394236  38.2247686
   7.5203961  11.5555882  30.2103400   8.3336407  11.0514617  30.2371907
   7.6791251  12.2975004  30.7939529  44.0161419  59.1371298  16.1875141
  44.5366144  59.9339867  16.0857379  44.4247723  58.6760902  16.9201076
  32.3605466  45.7707644   0.7440678  32.2943282  45.1255846   0.0400878
  31.8812537  45.3787947   1.4740467   3.3244938   2.8154403  22.1036124
   3.4703591   1.9264257  21.7801809   3.4723055   2.7542347  23.0473471
  58.8102150  52.9121780  20.8534932  58.0187798  52.8995657  20.3152537
  58.5241890  53.2757378  21.6914940  61.1414576  71.2715864  23.7605071
  61.2672758  70.5358887  23.1612182  61.9912338  71.3808584  24.1873240
  43.2845783  68.3930588  11.3791239  44.2312527  68.5277748  11.4225960
  43.1112814  68.2068110  10.4563498  56.7091084  74.7837400  19.8682022
  56.8211555  73.8331509  19.8609316  57.1805859  75.0864267  19.0921068
  12.7069509  13.6072123  66.2586832  13.2121778  14.4086254  66.1218834
  12.9361761  13.3279359  67.1450758  77.1171951  59.7975826  51.2641096
  76.4876366  59.0903950  51.4047194  76.6165781  60.4779005  50.8137941
  81.0363483  70.4619122  31.6215444  81.4496136  70.9618425  30.9176207
  81.4409065  70.7961035  32.4220943  75.9001637  73.8993263   9.6936142
  76.1523104  73.5265684   8.8488019  75.6571865  74.8033094   9.4936055
  51.9138575  66.5380716  21.9867229  51.8035126  66.8486881  22.8853726
  51.9959402  65.5880499  22.0700550   0.7413907   2.9769230  23.5448408
  -0.1122278   2.5974602  23.3360934   1.3092105   2.6991785  22.8260446
  23.9063311   1.5736245  15.1214719  23.9906478   2.5181597  14.9911821
  22.9623699   1.4212658  15.1656878  54.7126961  58.1114864  28.7128615
  55.1854944  58.9429903  28.7488914  54.7361612  57.7834749  29.6117997
  74.2725039  63.8666010  20.1475716  74.4427061  63.1411600  20.7484031
  74.1505718  63.4481812  19.2953444  63.0249023  65.9966564  29.8590970
  63.8179302  66.4154816  30.1936507  63.3109808  65.5391169  29.0684938
  33.1964922   5.1700330  31.0832381  32.4285436   5.0255191  30.5304217
  33.2228374   4.4071567  31.6607833  24.1181445   9.4466978  24.1277528
  24.5124841   9.6717525  23.2850909  24.3472481   8.5269791  24.2613983
   2.0224388  49.2577171  18.7730539   1.4754915  50.0276899  18.6174381
   1.6138379  48.5648537  18.2541895  68.1437922  62.1796560  19.8566639
  68.1169653  62.3672009  18.9183998  67.4297905  62.6997328  20.2253819
  60.3120375  66.2824917  18.6897480  59.4752979  66.6838980  18.9242160
  60.2540827  65.3905201  19.0321791  34.7109890  73.0426931  20.6949306
  34.7238469  73.0578089  21.6519237  33.9803171  73.6130810  20.4561734
  61.0584974  67.7687836  30.5204964  61.4653349  68.4398222  29.9723887
  61.5592337  66.9738579  30.3372335  53.0536509  69.6709967  21.2384796
  53.1484604  70.3374481  21.9189858  53.4698963  70.0554991  20.4670334
  76.1834288  48.3804035  27.4098778  76.0281706  49.0650606  26.7592120
  75.4329014  47.7927113  27.3229194   4.7388488  48.6077452  36.1693287
   4.0402210  49.1332436  36.5592027   5.5470788  49.0291548  36.4615774
  48.0724573  68.4997034  18.8827097  48.8655281  68.6080503  19.4076192
  48.3845615  68.1574631  18.0450380  60.1443243  46.2089825  41.4318705
  60.5447721  46.0206890  40.5830956  59.7889853  47.0928431  41.3382578
   6.2096918   2.5004938  25.1552773   5.3763688   2.9536235  25.2836466
   6.5211099   2.8083780  24.3041253  69.1997576  58.7088823  36.1985564
  69.9075413  58.5153580  35.5838799  68.7897348  57.8604126  36.3665318
  60.8404732  60.5151892  17.7957523  60.3132343  59.7346544  17.9660940
  61.7377472  60.1884174  17.7297831  27.5803709  51.4165163  29.5381260
  27.8273320  52.1780109  29.0133715  28.2854199  50.7858849  29.3916941
  63.0202579  62.0678616  11.2409294  62.9383421  62.1479607  10.2906108
  63.0805397  62.9707241  11.5530801  76.5372992  41.3991594   4.4681334
  76.7034864  40.9426403   5.2928770  76.5763569  42.3279285   4.6963853
  69.8196268  44.9921989  50.6627226  70.2058172  44.3560219  50.0607538
  70.3730059  44.9505281  51.4426327  71.7077875  69.5730591  13.4654570
  71.5322065  68.8143396  12.9089046  72.1222353  70.2079248  12.8811550
  73.6209917  39.3092752  16.9903004  74.3472433  39.1411066  17.5907254
  73.1997013  40.0952291  17.3381782  59.5906925  63.2967043  46.2246990
  60.0710392  63.7446880  45.5284119  58.6705732  63.3852577  45.9761763
  33.8039446  62.5240803   8.3190554  33.1681490  62.4074745   9.0250289
  33.3098316  62.9524517   7.6200688   7.4530917  63.2023287  20.3280711
   8.2841921  63.6229849  20.5484223   7.3267072  63.3938122  19.3987751
  76.8844604  60.6924820  37.9176331  75.9404516  60.6007957  37.7885032
  77.1201086  61.4730024  37.4161434  66.3924837  44.0752172  32.7282310
  66.2563133  43.1410789  32.5698757  65.7608128  44.5098543  32.1552396
  54.9973345  67.7655125  48.9837122  55.1013088  68.1713533  48.1230640
  55.0651360  66.8257189  48.8151264  60.1420975  45.3205013  14.6296966
  60.5477428  45.6786156  13.8401127  60.4518127  45.8872175  15.3361964
  58.9861679  59.4613075  11.7448485  59.3272066  59.5968580  12.6289034
  58.3178282  60.1384020  11.6395259  59.5295715  57.1402693  30.6395030
  60.1147699  56.3832664  30.6663418  60.0093746  57.8302765  31.0976648
  48.2998133  62.8825092   5.7801574  48.0360317  63.3471537   4.9859554
  48.2172632  61.9560289   5.5542111  52.0593309  60.3649998   9.6048498
  52.9836941  60.1297617   9.6851337  52.0599604  61.3200235   9.5403028
  55.0246572  60.4557991  35.5287933  54.4440556  60.2578640  34.7939777
  55.4565859  61.2727976  35.2794385  52.2015953  68.6920071  44.5588827
  52.8272104  69.1405725  43.9900017  51.5079689  68.3988810  43.9679575
  67.6830578  56.0601521  37.9507208  66.9700718  55.5570602  37.5572944
  67.4448824  56.1304855  38.8751411  42.1442032  54.0141201  17.4271035
  41.4451599  54.6607351  17.3298609  42.0476341  53.4408092  16.6666961
  54.8649120  60.3961611  25.2357292  55.0992632  60.4958677  26.1584234
  53.9078093  60.3831387  25.2317619  54.5836496  59.1218138  22.4687433
  54.9111223  59.7111559  23.1482053  54.4575262  59.6840763  21.7044234
  63.0541039  51.0726690  13.5495746  62.6283073  51.9115162  13.3727562
  63.9872503  51.2818003  13.5912251  15.3124309  29.9680591  65.5924368
  14.4473183  30.3612685  65.4775572  15.2232850  29.4158053  66.3691616
  72.0544958  65.9832239   2.9052502  71.5803623  65.4298782   2.2845724
  72.6438427  66.5042734   2.3598987  57.5716162  59.5676994  15.7324922
  57.5265074  60.5215120  15.6658721  57.1684742  59.2517900  14.9238467
  54.0998363  61.8743849   6.6935438  53.3348417  61.3218307   6.5332210
  54.2809248  61.7676353   7.6273763  77.4546766  63.3214378  13.0678880
  77.9725409  63.0967093  12.2948766  76.7989302  62.6266575  13.1271505
  12.6768935  15.1713681  19.6986020  12.3332095  14.3588769  20.0700498
  12.2676599  15.2320230  18.8354218  61.1109686  62.5612831  21.7834997
  61.0110092  62.4707699  22.7311540  61.6975927  63.3098269  21.6749501
  75.6130743  74.5600843  16.8735266  76.4528418  74.1601944  16.6474390
  75.3870296  75.0906277  16.1095536  40.5158377  69.4865942  41.8501997
  40.9859228  70.3082323  41.7082262  41.0345888  68.8303709  41.3849020
  66.0021400  61.4756680  27.6512218  66.9411564  61.3910198  27.4859595
  65.9396553  61.6619253  28.5880423  56.9436407  57.9198456  24.1730261
  56.9221115  57.0727253  23.7278748  56.0861397  57.9920053  24.5922041
  76.6834688  53.3832455  16.7244577  76.8145466  54.3015957  16.4884818
  77.2705984  53.2405615  17.4668527  70.5839062  63.6660528  23.3931017
  70.4401493  63.7919283  22.4551678  70.0943184  62.8715515  23.6059475
  14.8872435  63.4933805  26.3641906  15.6737161  64.0218258  26.4999795
  15.2184570  62.6311016  26.1131930  54.0045214  75.4076147  35.9757948
  54.3398428  75.9845066  36.6620755  54.0115023  75.9468937  35.1849961
  36.1788583  63.5735321  33.7137151  35.8597755  64.4597244  33.8842416
  35.9528780  63.4096479  32.7981234   6.6473031   6.5878987  31.0539556
   6.0682136   6.2952411  31.7576885   6.6457731   5.8651620  30.4263568
  35.3982782   7.9842782  17.0883381  34.5467353   7.6399726  17.3577058
  35.1884198   8.6971807  16.4850450  71.4905453  69.1905689  39.8884678
  70.6010199  69.5331049  39.8010612  71.4268255  68.5323954  40.5805492
  38.1476665   2.5374386  15.3797019  38.6234617   3.2989150  15.7113707
  37.2268844   2.7966735  15.4141986  48.5728836  66.9488001   2.2919980
  49.1907883  67.5242853   2.7428198  48.9490175  66.0735464   2.3851988
  76.4366198  57.4861479  18.4346056  77.3114204  57.2711897  18.1109595
  76.5786314  58.2071686  19.0479505  63.9314413  70.8834362   9.4355685
  63.7652922  71.5083790   8.7298232  64.8605728  70.9924459   9.6382099
  66.4892769  63.9461136  24.3989611  65.8238077  63.7114048  23.7522078
  67.1698141  63.2811403  24.2945313  40.4752445  10.1788008  53.0404806
  39.8790383  10.3125703  52.3036814  40.5962706   9.2301685  53.0814791
  73.6473083  66.5255404  33.2196259  72.7877855  66.5373468  32.7985382
  73.8171959  67.4406862  33.4429574   4.6454191  49.5256186   9.6123290
   4.0965804  49.2499542   8.8781530   5.2489173  50.1647520   9.2334682
   2.5413737   6.7006862  31.8256593   3.4832463   6.6954070  31.9961882
   2.2857872   5.7790530  31.8643832  28.9275718  10.6508911  25.6024647
  29.0401697  11.3857460  26.2054086  28.9373589   9.8761940  26.1645865
  26.8502331  25.0929427  21.5868044  26.3465691  25.7990980  21.9916511
  26.1948156  24.5564556  21.1408901  62.7669287  45.3659105  64.2293882
  62.0849943  45.9210253  64.6075964  63.1726694  44.9377489  64.9832344
  74.9079800  50.4480600   5.8862758  74.6110106  49.5718098   6.1316943
  74.1525221  50.8440590   5.4518747  33.1212091  54.9834538  10.8381379
  34.0326047  54.7819853  10.6260037  32.7528071  55.3164530  10.0198340
  43.6954832  67.3381758   8.4666389  44.5995760  67.0269394   8.5110962
  43.7408686  68.1301022   7.9308921  73.3519077  57.6593018  23.4461737
  73.5929585  57.6445723  22.5199389  72.9253912  58.5073423  23.5692072
   1.9599713  70.7924557  15.7614756   2.5606331  70.1670551  16.1668253
   2.4996427  71.5631151  15.5852163  79.9511433  71.4521742  28.2920599
  79.1013432  71.0309601  28.4211206  80.1250744  71.3585711  27.3554611
  74.9264193   7.4809945  46.4670229  74.0185833   7.1830994  46.5246534
  74.8868561   8.4128249  46.6823339  46.3721991  55.7779551  20.0091171
  47.2262192  56.2101841  20.0016451  45.7913256  56.4027643  20.4432034
  65.4950619  62.8895760   8.4106606  65.7395220  63.2293415   7.5498295
  64.5831871  62.6163960   8.3102077   9.1158110  16.9616425  22.7292585
   9.0019768  17.1722925  23.6560273   8.4261501  16.3248539  22.5419116
  39.1300201  70.1883793  17.4871445  39.2846727  71.0364532  17.0711029
  38.3111858  69.8778200  17.1007597   6.2237448  61.3967609  21.8947053
   6.5677220  62.2204161  21.5490150   6.9997895  60.8560801  22.0418549
  60.8394814  63.8713455  38.9070463  60.9121323  63.4763145  38.0381966
  60.8837557  63.1304407  39.5114756   5.6818497   1.0460262  38.0708337
   5.1280093   0.2659742  38.0390310   5.0942183   1.7455018  38.3565879
  54.6750116  14.8858118  32.1903205  53.7179184  14.8748648  32.1814728
  54.9033928  15.8134782  32.2495508  79.0774870  76.0770464  33.8368344
  79.5076227  75.2995825  34.1928792  79.5296240  76.8118954  34.2513204
  71.0872889  70.5600739  20.1469016  71.5855980  69.7647572  20.3350306
  70.4310322  70.6016922  20.8424830  74.5740557  74.5628405  12.3958147
  73.6623049  74.7137070  12.1464634  75.0117636  74.3335104  11.5760243
  20.3554034   8.5146809  23.5940433  19.6628404   9.1445017  23.3942580
  20.4807043   8.0297136  22.7783608  43.1446314  71.3387012   7.8288305
  42.2760725  71.6668940   7.5961739  43.0166435  70.8962870   8.6679500
  43.9065361  62.6021528  25.6829357  43.8309956  62.2599268  24.7922015
  43.5600710  61.9035912  26.2380958  12.6458263  10.8025455  29.0844774
  12.4482310  11.7301369  28.9550114  13.2779050  10.7903469  29.8031998
  37.8729200  13.3929682  25.6332421  37.7403045  12.7708387  24.9179816
  38.6844015  13.8477933  25.4077125  63.6023903  59.4480515  32.0405912
  63.5588646  60.3912163  31.8831897  63.8643742  59.0764904  31.1982512
  47.1968460  73.4343767  36.3486362  47.3993444  72.6969242  36.9243002
  47.9959154  73.5664320  35.8384633  66.6414928  53.8952971  30.1059127
  66.2657404  53.8037729  29.2303181  65.9071064  54.1719341  30.6539869
  27.3881984   8.6105931  41.4753914  27.1937275   8.7061036  42.4077511
  28.2091689   9.0870309  41.3519287  63.9518690  67.0725536  37.8780532
  64.6571255  67.5592661  37.4514937  63.6321306  66.4735365  37.2033882
   0.3702521  60.4984856  49.9531460  -0.5019920  60.8614588  49.7992849
   0.9102224  61.2576437  50.1730108  18.6395729   4.0023550  13.8820612
  19.4515288   4.1511613  13.3974838  18.6002135   4.7232115  14.5105898
  81.9089413  71.0555553  45.9439087  81.6403389  71.9586039  46.1129665
  81.4547920  70.8179331  45.1355028  12.9603803  11.7799926   4.4240621
  12.8557551  11.8160415   3.4732801  12.0653844  11.7606211   4.7629419
  78.9453745  50.7572508  25.8202314  79.3245506  51.1976099  26.5808487
  79.6575594  50.2184010  25.4757524   4.2618972  26.0404968  45.6622076
   4.5106757  25.5513430  46.4464712   3.3084595  26.1075234  45.7141304
  49.6668816  64.5218992  25.5032802  49.5252466  64.8541784  24.6168470
  49.4124508  63.6002922  25.4570985  57.8536081  67.7184820  24.8428702
  57.3389339  68.1637669  24.1697693  57.2298145  67.5502253  25.5491328
  23.9362526   4.8466602  43.2384491  23.9265704   5.6581044  43.7460852
  23.0121017   4.6439135  43.0932856  67.4354506   6.0462338  11.8604863
  67.7240992   6.0889286  10.9488451  67.7514505   5.1982111  12.1723080
  55.0304890  70.9777832   0.0729535  55.9698057  70.8224583   0.1718958
  54.6223927  70.1522970   0.3342235  37.8967977  64.0158653  25.0117874
  37.9328799  63.9552975  25.9663868  37.4073362  64.8205757  24.8411846
   4.1878536   4.5112917  11.6598964   3.7363344   3.8811177  11.0984302
   4.9363679   4.8026592  11.1392581  67.8338480   4.4139224  32.3646951
  68.6565971   4.8919535  32.2607565  68.0758858   3.4941912  32.2563219
  48.9685059  62.0283604  26.2644076  48.0542183  62.0524883  26.5467620
  49.2044449  61.1012220  26.2956548   5.3965992   8.3130145  13.5469711
   6.2594622   7.9069549  13.6295211   5.1462567   8.5282964  14.4454217
   1.1306155   0.5859207  41.1808014   1.2399539   1.5254319  41.0338449
   0.1933785   0.4323179  41.0615349  47.7579594  71.1734056  37.8058052
  48.2195616  70.4515743  37.3790622  46.8568659  70.8627415  37.8938174
  32.9536629  15.1160789  37.0095325  33.8460898  14.8449945  36.7943096
  32.7202797  15.7395411  36.3217402   1.5975438   3.9183015  20.1761842
   0.8064733   3.4284335  19.9515319   2.2503984   3.2446969  20.3666282
  59.2214680  63.9112091  20.2526784  59.5496321  63.3962297  20.9897923
  58.6243582  64.5449543  20.6502485  16.4474106  48.6392498  52.7533388
  15.9616792  48.6274529  53.5780525  16.3769913  49.5433044  52.4468136
   8.1619227  70.5680180  36.5500355   8.1667334  71.4896011  36.2914062
   8.8147771  70.1568508  35.9835052  63.8437748  75.7305574  20.3227854
  63.9492607  76.1688232  19.4783759  64.7310638  75.4700327  20.5699158
  74.9804163  60.2212858  19.6556926  74.7020864  60.6240273  20.4782295
  75.9363556  60.2643490  19.6793532  23.7075591  -0.2756136   9.4330686
  23.6557269   0.6512243   9.1995794  23.6770939  -0.2836674  10.3897500
  78.8375044  68.6971474  30.5531764  78.6236954  67.8944206  31.0287213
  79.5025682  69.1250753  31.0924363   9.2277294  34.1670418  62.2937679
   9.3233800  33.3240700  61.8505096   8.6496496  33.9839673  63.0344009
  64.0845490  55.2046680  20.4265881  63.6714745  55.8377886  19.8394263
  64.6803474  54.7097158  19.8642004  81.3228893  17.5562406  26.2699294
  80.3956985  17.5201643  26.0348535  81.5035725  18.4886014  26.3894629
  66.9414854  58.0115366  28.0971575  65.9890032  58.0039930  28.0025721
  67.1012688  57.5970173  28.9450216  34.7777939  23.1610179  36.8038344
  34.9087000  22.2510672  36.5372157  34.5087337  23.6092043  36.0019827
  53.2307005   8.1988639  39.2918110  54.0661860   7.7793211  39.0864325
  53.0692005   7.9750299  40.2083540  35.0053644  26.4086223  65.7334614
  34.8932123  27.2286320  66.2143326  34.2132759  26.3327050  65.2014208
  54.8933029  73.7049007  39.4898033  55.4832697  73.0375957  39.1392708
  54.1378880  73.2121801  39.8104382  65.7986069  73.3420420  16.3752723
  65.7584286  72.3863840  16.3388026  65.8644581  73.5435534  17.3087025
  24.2691398   0.3918892  41.9875526  24.5857024  -0.2560860  42.6169538
  24.4787788   1.2361183  42.3870039  73.1277514  74.0998125  32.6013851
  72.2751760  74.3457842  32.2424316  73.7615919  74.4570303  31.9793940
  80.0883293  71.8801451  22.4733281  79.6464443  72.5703764  21.9788074
  79.4550705  71.1629200  22.5017118  65.6397390  65.6790686  42.0768404
  65.9832621  65.2589035  41.2883711  65.1737499  66.4501953  41.7536592
  73.6879253   2.7538380  12.0005119  73.3607578   3.6483970  11.9058704
  73.7273026   2.4172467  11.1053085  61.5549326  71.2859344  31.4515114
  61.9704771  72.1311331  31.2806511  61.8820047  70.7135820  30.7574892
  76.2989426  74.2238998  45.3478336  76.6190815  74.1183424  44.4519520
  75.5917120  74.8648548  45.2754927  64.8384476  69.8442268  51.6253090
  65.1907969  69.4460011  52.4212360  64.1985226  70.4827309  51.9400167
  61.1751747  70.3663588  33.9419580  60.2274084  70.2477121  34.0043831
  61.3072395  70.8001757  33.0989909   1.9439545   3.3456865  10.4329824
   1.7199311   3.1604463  11.3449752   2.3953897   2.5570011  10.1322949
  62.7773571  62.3959637   8.2681400  62.5661278  62.9817390   7.5411725
  62.8305435  61.5278053   7.8685093  71.9772959  68.2759380  25.5603695
  71.8212605  67.3866701  25.2424288  72.6955271  68.6016703  25.0178957
  35.6833696  63.3577919  18.9872563  35.8157682  63.9764500  18.2689488
  36.5673709  63.0917215  19.2402041  26.5664721   8.0642653  25.2873063
  27.2870398   7.7353805  25.8247542  26.9854712   8.3565605  24.4778395
  28.6022282  75.9572792  33.8496947  28.3747387  76.5913153  34.5297503
  28.7385845  75.1366854  34.3232536  68.7337351  56.7423534  25.6645298
  68.1077719  56.0584831  25.4263663  68.2747078  57.2702169  26.3178921
  11.8063700   2.4684869  24.9698710  11.7317009   3.3108190  24.5213938
  12.6230776   2.0933431  24.6404934  36.4925551   6.0412550  15.0136578
  36.8613482   6.9165564  14.8950350  37.2548580   5.4639184  15.0562203
   8.9346761  14.6987712  29.4451237   9.1125196  15.4584610  29.9996281
   8.0108088  14.7848892  29.2099977  66.7420483  75.2314520  29.6542263
  67.0048666  75.9416199  29.0687180  66.3360405  74.5838404  29.0780425
  81.2402534  23.3979154  13.0299711  80.4123116  23.6023664  13.4646463
  81.9003868  23.4889555  13.7171102  69.1402817  54.8111725  35.7844734
  68.5459900  54.9814653  35.0536847  68.7289762  55.2428770  36.5332675
   2.1867071  55.3831959  57.0048285   2.0991324  54.4345140  56.9123125
   2.7552816  55.6430626  56.2799644  67.1551323  53.0495548  53.4197617
  66.9521761  52.2833872  53.9564419  66.3676882  53.1888723  52.8936863
  33.1846857   8.7661457  27.7606893  33.0867386   9.6691245  27.4585843
  34.0212202   8.4802091  27.3936963  39.7936964  59.4739676  35.8867335
  39.4740319  60.3606796  35.7200217  40.1018381  59.4968319  36.7926908
  81.0496426  54.6794367  16.7968714  81.6722012  54.4134617  16.1201859
  81.5303707  55.3137589  17.3286271  62.3764658  55.3211164  38.5007453
  63.2211208  55.1284313  38.9077687  62.5879908  55.5046701  37.5854301
  77.0726347  65.3515625  36.7875338  76.5924692  65.2740526  35.9631181
  76.4624596  65.0299931  37.4512434  37.7233624  76.2476873  35.1857162
  37.0350027  75.6958103  34.8144674  38.2059622  76.5725088  34.4255710
  71.6086435  48.5030174  27.6040363  71.9553852  49.3945312  27.6387715
  71.0757446  48.4222984  28.3950710   9.4666910  75.0399780  10.9567165
  10.4156995  75.0640488  10.8340967   9.1765660  75.9297180  10.7556593
   0.3389601  75.2736759  35.9530139  -0.3114201  74.7758627  35.4576159
   0.3806494  74.8344278  36.8024564   6.0028177  71.9211769  14.2647147
   6.7163950  72.1657562  13.6754596   5.2748984  71.7042065  13.6822295
  71.3116884  50.8634758  35.6044769  70.7012653  50.4479265  36.2135220
  71.8876505  50.1534891  35.3208923   9.7788256  33.4131432   2.2616912
  10.6808484  33.0978608   2.3181108   9.5751047  33.3901453   1.3267040
  69.3542910  73.2790565  27.2038078  70.2242231  72.8936243  27.3081541
  69.4835567  73.9982319  26.5854979  15.7654214  17.0810056  39.1025138
  16.6030478  16.9679844  39.5517778  15.2253699  17.5711977  39.7224212
  50.9769011  11.0222089  16.0419381  51.0940123  10.8836186  16.9817841
  51.1272097  11.9593024  15.9174597  21.7066741  71.8255234  36.1831355
  21.9001341  71.0087442  35.7230496  22.2793460  72.4732447  35.7723594
   0.2758108  61.7973709  25.9207082   0.5948302  61.5369034  26.7847753
  -0.6195139  62.0979404  26.0765433  45.9706736   5.4730338  25.8969641
  45.9251499   5.5848253  26.8465233  46.6041422   6.1301148  25.6085348
  77.4594688  59.0063143  20.5874586  78.3998156  59.0084505  20.4086399
  77.3747826  58.5391665  21.4186215  14.6109033  62.6379681   5.8314425
  15.2676201  63.3255005   5.9421426  14.4610476  62.3051739   6.7163289
   2.9804903  75.8486652  30.2391505   3.3915004  75.6373310  29.4009137
   3.3978847  75.2580690  30.8662128  24.7436857   1.7295152  34.1538620
  24.2846441   2.3488688  33.5864878  25.2455091   2.2810747  34.7540212
  30.8329487  12.0330632  10.7274950  31.4863515  12.3459327  11.3531208
  30.8687186  11.0793328  10.8006382  46.8188858   7.9639393  26.6012764
  47.7397060   8.2243007  26.6244435  46.3822365   8.6700803  26.1248994
  40.4591608   4.7282073   8.9455116  39.7942305   5.2489722   8.4950638
  40.9130812   4.2609349   8.2441968  12.0419073  13.3946800  23.2100606
  12.2480261  14.3254101  23.2965970  11.0853386  13.3609962  23.2014561
  43.5210323   0.0767041  29.8944640  44.0766287   0.2651105  30.6508017
  43.5301924   0.8857917  29.3830681  29.0863085  72.2426271   6.1514276
  29.9333024  72.0774126   6.5655994  28.5839415  72.7164602   6.8142557
  72.6602459  12.0309377  62.2033644  72.0196915  11.6444612  62.8004885
  73.3057213  11.3381112  62.0634270  40.9510851  19.7670722  19.1865468
  40.5772161  20.5192208  18.7274957  40.2334213  19.4345653  19.7256494
  57.7113008   2.0836422  11.2493670  57.9382753   1.1838415  11.0146892
  58.4150600   2.6135826  10.8750415  19.1548181  31.6596317  15.6160390
  20.0324941  31.3595748  15.8524299  18.8874745  32.2172856  16.3466418
  71.1904001  34.8031640  16.9674695  70.7395220  35.6338358  16.8160486
  70.5785036  34.2915034  17.4966395  79.7246313  64.9577951  26.1686850
  79.5847368  65.8637953  26.4440417  79.7158098  64.9940777  25.2122140
   2.8101194   8.0596256   6.2772506   1.9009811   7.8982902   6.5295804
   3.2560706   7.2293442   6.4445597  27.2765350  30.5161810   5.8030492
  26.3528967  30.2986455   5.6773412  27.3755741  31.3803983   5.4036111
  36.7737126  18.2159150  19.5665395  36.9885731  19.1478920  19.5280194
  37.5299001  17.8132319  19.9934590  17.8780699   9.2107463  21.6026807
  17.3837471   8.4487426  21.9047213  17.3758316   9.9622667  21.9176507
  77.0589685  59.0884876  61.0608625  77.0935583  58.3026981  60.5153656
  77.7497005  59.6523333  60.7127285  68.3436108  75.3964329  19.2466593
  69.2130852  75.7941771  19.2013538  67.8266335  75.8764553  18.5997093
  35.0651789  14.0023243  10.0937104  34.3146420  14.5399213   9.8408931
  35.2950716  14.3092620  10.9707344  81.0480690  27.8143787  65.4292870
  80.5605030  27.2196722  64.8593426  80.8597565  27.5050831  66.3153553
  15.0676274  76.4158535  33.7164259  14.6476448  77.1602583  33.2854891
  15.7176280  76.8109655  34.2974734  31.0541630  18.8348520  20.2488470
  31.6601229  18.6117494  20.9554362  31.5819860  19.3416214  19.6317422
  39.1422558   4.3159175   3.5374558  39.5159769   3.4429926   3.6581439
  39.3711209   4.7872853   4.3384954  24.7930622  68.5839844  18.4308255
  25.6066132  68.9542103  18.7733138  24.7340298  68.9213324  17.5369883
  37.0978212  39.9764252  10.0654626  36.4496326  40.3020954  10.6899786
  37.4414659  39.1800427  10.4703271  42.9156685  72.8072119  26.9508719
  42.2222137  73.1284571  26.3745475  43.4329081  72.2203827  26.3992119
  55.3860807   2.2243778   1.9702521  55.4417229   3.1191146   2.3057847
  54.5865583   1.8714502   2.3606828  19.5435882   8.4585309  39.1851258
  19.2149675   8.5069072  40.0828457  18.7899268   8.1719083  38.6693025
  52.5654793  15.1012957   8.4862649  51.7498016  14.6039116   8.5455155
  53.2532692  14.4515753   8.6313111  27.4377394  74.0459347  15.0243068
  27.6441836  74.3240499  15.9166431  26.5081930  73.8193369  15.0530612
  54.6080923  18.2315075  13.2006979  54.5512152  18.5789871  14.0907860
  54.1369963  17.3990953  13.2379889  67.7884817  29.5636272  55.9984636
  67.1143770  29.6662021  55.3266811  67.5466824  28.7605166  56.4597416
  42.8800583  17.7486730  15.9167492  42.2776890  17.5500286  16.6336334
  43.0111074  16.9098687  15.4746366  31.5198851  14.4368005  23.4965634
  31.5516496  14.2164087  22.5656223  32.2345281  15.0616670  23.6192846
  64.6416044  69.9207449  45.9403229  65.4322386  69.9406576  45.4011297
  64.9614048  70.0125599  46.8378353  20.8572292   5.7135081   6.6840380
  21.5519500   6.3055187   6.9723457  20.4985118   6.1290711   5.8999074
  23.9312339  29.6055031  38.6545801  24.1379881  28.9516807  39.3224120
  24.2119622  29.2046523  37.8319383  32.1167421   3.3074597  23.0856848
  32.2152185   4.2467850  22.9301167  31.8535662   2.9504937  22.2374249
  77.3284245   8.6965722  23.2175803  77.6756811   8.2068938  22.4720216
  78.1027746   8.9458078  23.7220550  18.9283574   7.5764841  44.5129871
  19.7906327   7.8188789  44.8505640  18.6987054   6.7803043  44.9921465
  25.5868053  39.4434094  27.2098804  25.4121447  38.6400247  27.7000809
  24.7254729  39.7317958  26.9079304  24.9126697  11.4213741   7.7786124
  24.7487497  10.5137813   7.5224137  24.4002318  11.5408123   8.5782206
  38.8645387   7.3041451  33.9290190  37.9683208   7.5616527  33.7128758
  39.1127133   7.8827572  34.6500230  31.1966348   2.9136389   1.0473837
  31.9802833   2.6180866   1.5108244  30.5120230   2.3031734   1.3210087
  47.4106359  17.8743160  24.6308422  47.8082085  18.7434149  24.6841049
  48.0634451  17.3395824  24.1790366  40.2175808  34.8454595  23.0206966
  40.4358864  34.1736269  22.3747730  39.4797397  34.4786382  23.5077953
  42.7744675  18.0600679  23.9968848  43.7003613  18.1078792  23.7588382
  42.6566553  17.1677041  24.3225193  35.0056887   4.5704314  25.4280114
  35.8392882   4.9374330  25.7223797  35.2081656   3.6606222  25.2101064
  55.7181454  46.0980463  64.1077328  55.1556826  46.7886209  63.7570524
  55.1306963  45.3535652  64.2376518  15.8601654   3.2701272  18.5033393
  15.0761151   2.8400248  18.1620049  15.9056723   4.0987596  18.0263388
  22.2760820  54.6697807  20.9720516  21.6321588  53.9978027  20.7483649
  22.9702139  54.1939783  21.4281464  82.2404289  24.8086309  65.5432701
  81.9239521  24.3460035  66.3191891  81.4512634  24.9849653  65.0310612
  26.5723562   3.1348929   4.2118764  27.4661160   3.2965347   4.5140320
  26.1957121   4.0077692   4.1002631  56.0910463  10.4949224  22.9918671
  56.0975599  11.3138211  23.4874415  55.3564310  10.5878818  22.3852968
  76.7737770  47.9786730  61.5910816  76.2646770  48.7625504  61.7974615
  76.1900520  47.4504471  61.0465860  11.8354058  18.1862712   7.9886764
  11.5154552  18.1316686   8.8891667  11.0451198  18.2964993   7.4599707
  66.6511202  39.7617722  64.0287161  67.3640156  40.0903225  64.5765018
  66.2161922  40.5499840  63.7034607  61.0801935  18.7561607   8.4943700
  61.7864847  18.1941628   8.1757194  60.2856350  18.2378519   8.3668298
  47.8967094  23.1812644  10.7358277  47.8580713  23.6669564  11.5597475
  48.8246584  22.9757357  10.6222486  37.0452023  40.5481052  16.7313266
  37.7705193  40.0680733  17.1309710  37.0245576  40.2401638  15.8252490
  19.2432976  14.9480081  25.7754922  19.2999017  15.8880544  25.6041980
  20.1533270  14.6514630  25.7872057  29.1786265  32.3979783  21.0583234
  29.5905709  33.1826496  20.6966281  29.4415426  31.6943097  20.4650640
  12.5707304  41.8249512  11.8050325  13.3718240  41.6523933  11.3103557
  12.3157537  42.7106380  11.5466166   1.7997240  64.7381020   2.3056622
   1.7931409  63.7878752   2.1905234   1.9550605  65.0847530   1.4270642
  45.6425619  23.9708114   8.8268113  46.4383173  23.6718440   9.2668396
  45.3273487  24.6948528   9.3677706  27.0172310  68.5061169  15.5421066
  27.4859691  69.2841244  15.8441317  27.4979687  68.2238722  14.7639918
  47.3846102  26.9713020  19.4868827  47.1558905  27.4065113  20.3081703
  48.0405092  26.3199925  19.7355294  47.3160076   6.1289006  31.4152455
  47.9998159   6.2689233  30.7602382  47.5041962   6.7716515  32.0991254
  30.6356215  31.8338656   6.9148809  31.1313677  32.1711707   6.1687624
  30.4426146  32.6079273   7.4438500  33.3884025  29.5223212  20.6898952
  33.4361386  28.7812066  20.0859904  33.7869120  29.1989398  21.4978838
  30.0167203  27.1503830  17.8168333  29.6081495  26.7616940  17.0433855
  29.7351050  26.5928864  18.5421753  43.3276844  11.5631437  12.9226995
  43.2782412  11.3429666  11.9924796  43.6325121  12.4703765  12.9382205
  36.6100597  12.9310691  16.3473129  37.4443316  12.6667309  16.7350626
  36.3269401  13.6781538  16.8745124  17.7663791   8.4251165   4.3616340
  18.0468559   7.5180137   4.2402735  16.8531466   8.3581769   4.6404839
  32.4547815  28.0736876  26.4296842  32.1832180  28.9719772  26.6182566
  32.8121972  27.7527165  27.2576118  65.9761286  15.5014515  60.8923435
  65.9155655  15.3243232  61.8310595  66.2127686  14.6589887  60.5044174
  28.8501787  64.3614054  35.5172110  29.2897749  65.1921701  35.3360534
  28.2402897  64.5629168  36.2268996   4.7645152  75.8500385  25.3473091
   4.7406700  76.7991400  25.2253699   4.9371433  75.7328415  26.2814927
  69.9609137  53.6243010  47.1695566  69.8298216  53.3336306  48.0720806
  69.0859413  53.8669062  46.8665791  27.4795747  10.7640243  19.1145802
  27.5461078   9.8092741  19.0985477  27.9071641  11.0475194  18.3064795
  32.1740174  39.9146986  10.2404094  32.1377230  40.1549196   9.3145543
  32.4389815  38.9949036  10.2389920  15.5015588  34.0713739   5.7909769
  15.1300335  33.5300303   6.4875025  16.1573362  33.5109782   5.3760743
   3.5091195  69.0083122  32.7075076   3.8243353  68.8218451  31.8231440
   4.2951626  68.9795542  33.2529807  29.0181923  12.3195684  14.1875339
  29.3231463  13.1787252  13.8958406  28.2826090  12.1175086  13.6093283
  38.7486005  30.9880042  17.1340859  38.8327646  31.3446641  16.2498105
  39.5852542  30.5525970  17.2973680  54.5789289   2.8614306  16.1679947
  54.3606091   3.5221964  15.5107605  55.1384640   2.2382927  15.7044697
  65.4945421  47.5236559  58.3750200  64.8475981  48.1203556  58.7513781
  65.0802660  47.1929884  57.5779819  46.0451794   4.2177054   7.8793561
  45.2865124   3.6340955   7.8864652  46.7490959   3.6908644   7.5009751
  18.4491003  74.4887781  23.1938505  19.0740967  75.1321697  23.5280037
  17.8848732  74.9874544  22.6029158  69.6897221  26.8002558  27.0806670
  69.3881941  26.4078999  27.9000401  70.5738974  27.1111465  27.2751117
  46.8597698   9.2495412  43.2487583  47.2149706   8.3996016  42.9886246
  47.6264429   9.8184144  43.3182383  22.4556327  73.6363554  21.5971875
  22.0634151  73.3644342  22.4269199  21.7249966  73.9939880  21.0927081
  32.5734258  15.8146858  39.6603584  31.6637945  15.6493354  39.9082708
  32.6535106  15.4433501  38.7817645  15.6626463  18.3537495  21.4976549
  16.4069629  18.3550715  20.8958054  16.0053635  17.9632306  22.3015666
  74.3726110  66.4318419   6.8058121  74.6879387  67.0740747   7.4416882
  75.0473642  66.4155865   6.1270809  47.3249674   0.3810092  17.4181497
  47.2344923  -0.1228505  16.6093409  48.2031727   0.7584954  17.3682082
  38.7460208  24.7424388  16.8739545  38.2262158  24.5565081  16.0919929
  39.0585852  25.6381297  16.7463958  53.1338453  68.2017851  65.2526045
  52.7728558  68.8727331  64.6731710  54.0298176  68.0732489  64.9412394
  14.6099722   4.7909647  39.8430347  14.8928082   3.8777450  39.8906302
  14.4979322   4.9585435  38.9073014  49.7130251  16.6495168  19.3944752
  50.6338310  16.9021881  19.4615674  49.2310190  17.4687529  19.5074081
  54.2890453  73.9588022  52.0326376  53.5415268  74.4242144  51.6573524
  54.1388226  73.0413008  51.8049145  33.7458634  24.2683530  15.4416156
  33.6951399  23.7763262  14.6221232  34.1187978  23.6497569  16.0697007
  30.9214282  17.9095185   0.9545742  31.4676452  17.1457565   1.1404365
  30.8713627  17.9413998  -0.0007839  26.0360169   9.2412865  36.4949679
  26.9227719   9.2231649  36.1350083  25.9861517   8.4618032  37.0482755
   9.5992845  75.1354170  13.8623178   9.5677751  74.8287535  12.9561174
   8.7612635  75.5786943  13.9944398  58.5495758  11.9969666  11.3312674
  58.9894676  11.3445568  11.8763268  58.8058233  11.7735803  10.4364669
   7.0140481  52.1403980  11.5220952   6.3336670  51.4764690  11.4102423
   6.6002482  52.8201485  12.0540190  48.2756233  21.1674070  18.1777823
  48.3505106  20.9725428  17.2436237  47.9890633  22.0801425  18.2098341
  18.5238683  10.1186609   2.3779349  18.3536875   9.6033603   3.1664371
  19.2813742  10.6585920   2.6035252  57.7504063  42.5433779  65.4625082
  56.8301392  42.3732948  65.6635380  58.2344437  41.9451237  66.0317421
  51.3220882  16.1284792  15.9131598  50.7576847  16.8962824  15.8228433
  51.5212536  16.0863090  16.8484604  37.0210886  12.5640619  45.6323624
  37.2094631  13.5025418  45.6305361  37.2367311  12.2747648  44.7457743
   4.8662752  44.6516657  30.6503367   4.7211999  45.2316046  29.9027705
   5.8065176  44.4728756  30.6358457   3.8807228  68.2757235  18.9194977
   4.4741705  67.6192999  18.5545909   4.1733205  68.3866358  19.8241067
  35.0769162  28.5263205  22.8850818  35.2291179  27.6852226  23.3159161
  35.7839060  28.5983586  22.2438264   7.4260265  67.5113153  20.5052519
   7.9776585  68.1540489  20.0593495   6.8029517  68.0372381  21.0066628
  19.2179108  10.8935118  10.4871643  20.0733471  10.9398878  10.9141421
  19.4106877  10.6037593   9.5954734  80.6582832  75.7275915  22.6248407
  79.9838686  75.1069498  22.3488092  80.2688789  76.5884209  22.4713087
  14.2352760  12.2925508   8.1895590  13.6358130  11.5752304   8.3952916
  14.6905255  12.4679065   9.0131062  66.3787365  50.7425785  54.5477295
  66.0655308  49.8381472  54.5591784  66.4383221  50.9871197  55.4712486
  28.5740995   2.6408798  11.2002814  27.8095770   2.1844932  10.8489299
  28.3509922   3.5692352  11.1323810  34.6365070   9.6312559   0.0987436
  34.1974926   8.7951249   0.2548949  33.9729595  10.2913165   0.2993857
  31.3588381  24.1509104  29.4764996  31.0879850  23.3233404  29.8739934
  30.5964184  24.4353867  28.9724946  24.1112471   6.5212899   4.2001593
  23.3333850   6.1386603   3.7942547  23.7960935   7.3272985   4.6091336
  78.1312609  74.0072680   2.4872980  79.0478277  73.7963247   2.3094381
  78.1690025  74.7502232   3.0896467   0.6580427  75.7504416  20.3658581
   0.2308489  75.3435087  21.1196136   0.6044903  76.6903639  20.5387902
   6.7710173  14.6236205  12.1470439   7.6150692  14.5357406  11.7042279
   6.5445042  15.5485010  12.0494711  53.6882591   0.5263242  26.9482660
  53.3105183   0.8332577  27.7724862  54.0257263  -0.3464500  27.1497893
  43.8869333  24.1399598  18.3423185  43.5961533  24.4139576  17.4724889
  43.7772036  23.1890702  18.3430386  52.3889208  14.7363818  24.9675345
  52.1164370  14.8717892  25.8750868  52.8943491  15.5195630  24.7498178
  38.0881643  35.8765960  17.2461367  38.8945818  36.2194872  17.6312923
  38.3199143  35.6832933  16.3377547   1.8550633  74.0106916   2.1642868
   1.3143849  74.0300989   1.3746527   1.2792078  74.3346167   2.8568870
  10.9412754  67.5410795  29.7060895  11.1295867  68.2461071  29.0866470
  11.7716253  67.3912430  30.1580858  57.8098583  24.4321370   8.1123501
  58.0099249  24.8461390   7.2728217  57.1021175  24.9625850   8.4783554
  30.7891655   0.6688410  17.0133078  30.8520961  -0.2856397  16.9781220
  31.3397813   0.9179750  17.7555919  73.9041567  48.7698555  65.2302742
  74.7374582  48.3272982  65.3914785  74.1273880  49.7004175  65.2088690
  62.2832680   9.1590393  10.8886039  62.7560711   9.9692780  11.0788727
  62.2709274   9.1077214   9.9328601  26.5557075  18.8214278  16.9085205
  25.8939362  18.7179899  16.2247157  27.2622371  18.2298481  16.6495168
  22.2363830  68.3972979  10.3398466  21.5718198  68.4170723  11.0284638
  21.7917418  68.7471676   9.5677590  56.7438936  39.6207619  64.9516821
  56.5904284  39.8230457  64.0287733  56.3088751  40.3282785  65.4275036
  68.2367134  67.1063280  54.9314451  67.8797197  66.8584394  55.7842827
  68.3517742  66.2759447  54.4694233  38.3200932  37.7583909  11.4633489
  39.0850782  37.7303553  10.8886802  38.5778522  38.3419800  12.1769440
  61.1414194  60.4520893  15.1209009  60.4358625  60.8220482  14.5902836
  60.8883524  60.6446695  16.0237312  36.7465544   9.1520572  40.0435305
  36.2705421   8.6374468  40.6953144  37.2010803   8.5006332  39.5094109
  39.0248108   2.1282919  63.5810471  39.2502475   1.3700649  63.0420637
  39.7593427   2.7310950  63.4656239  42.0138407  37.5199127   6.8404359
  41.5662193  38.1811595   7.3682791  41.9411659  36.7148161   7.3530459
  55.9824324  13.3292162  12.0340371  56.8168545  12.8642499  11.9725776
  56.2274218  14.2414010  12.1893847  39.4176269  70.0021172  11.2080085
  40.3143406  69.8297358  10.9209204  38.8691950  69.6236229  10.5208433
  58.9400244   4.9599645   3.2691216  59.8690891   4.8639378   3.4785345
  58.7718201   5.8987021   3.3510432  36.2358761  25.0956988  33.4689260
  36.1805081  25.5423164  34.3137336  36.7592883  24.3138981  33.6451626
  20.0141335  13.5274744   0.7653280  20.3601098  12.8640783   1.3623533
  20.1492548  14.3565452   1.2242569  12.1958792  60.1970530  28.6120462
  11.5986657  60.9365702  28.4994602  13.0487621  60.6004095  28.7736821
  21.3193035  16.4920151  21.4399838  21.4403772  16.1312270  22.3182797
  21.8956351  17.2557938  21.4132524  23.4568477  25.0909352  33.9819741
  23.0483055  25.2429104  33.1297827  24.0941215  24.3950009  33.8213778
  25.4788947  12.1305108   4.9992889  25.3090811  11.8211341   5.8890533
  25.6642866  13.0639970   5.1015866  50.5955362  18.7443674  21.3433766
  49.7521019  19.0296924  20.9920311  51.0937691  18.4669673  20.5745816
   7.0819098  40.5502272  64.9580383   7.1116036  41.4938068  65.1161814
   7.9701269  40.2476263  65.1470709  42.3198175  55.0185871  65.7624006
  42.8790998  55.7797766  65.9174013  41.4331627  55.3770208  65.7223558
  19.6733642  68.3021212   6.1477506  19.1463351  68.7000895   5.4548633
  19.3720794  67.3943949   6.1864311  42.4509621  15.7117629  25.4707956
  43.0131769  14.9819326  25.7305908  42.1564102  16.0933554  26.2977505
  23.7088943  16.9797087   5.6844860  24.0896344  17.0526850   6.5596676
  24.0894604  17.7096927   5.1960963  27.6744771  10.9383714  38.4848595
  27.8577542   9.9989641  38.4724212  27.4582124  11.1522424  37.5772691
   0.6494752  57.4287033   3.4132522   1.1680959  57.4037218   2.6091129
  -0.1429588  57.9085541   3.1723753  40.0201750  56.4156771  65.6602049
  40.2649832  56.9798136  66.3937235  39.1753078  56.0447693  65.9148788
  37.1700931  24.0883398  24.9972534  36.9955945  24.9888349  25.2709174
  37.2182393  23.5943413  25.8157158  10.5828285  27.5195789   1.9980015
   9.6650153  27.2580957   2.0720105  11.0692942  26.6955519   2.0217215
  55.9443760   1.3750818  14.3542612  56.4927006   0.6134030  14.1660619
  55.5292082   1.5839627  13.5174596  27.1327567  28.0336618  33.6220407
  28.0550933  28.2870698  33.5858583  26.7453194  28.4275031  32.8403664
  72.5652075  10.0128496  35.5293632  72.5344467  10.3321266  36.4312220
  72.2670126  10.7542861  35.0025010  24.9127650  34.2588186   6.5489775
  24.6432996  33.9317107   7.4072444  24.2403126  33.9375544   5.9482884
  26.6309428  28.5348725  22.3362303  26.7001343  29.3073153  22.8972816
  27.2766590  28.6821866  21.6451573  69.6873999  56.1384010   3.9579630
  69.0294838  56.8213415   4.0882465  69.9780846  55.9141016   4.8419449
  38.0229807  41.1426353   7.6410496  37.6519752  40.8679676   8.4795862
  38.4362411  41.9858360   7.8266859  45.2645493  38.4690428  14.9829853
  45.3474092  39.0070391  14.1956306  45.6362343  39.0078139  15.6814194
  80.6131649  28.8441467  18.2138860  80.7522964  29.7858810  18.3139408
  81.2645054  28.4433198  18.7895024   8.8256824  64.1980839  63.9925718
   9.6387219  64.1001844  64.4881630   8.2940733  64.7943735  64.5198870
  68.0300617  41.0939598  60.8491325  68.5975361  40.7781935  60.1459265
  67.1417427  40.9461212  60.5246830  36.7160583  21.3276553  13.1725383
  37.2442079  20.8713984  13.8276124  37.3531818  21.8063474  12.6422930
  37.9858065  16.3279176  23.6325479  38.5307765  15.7355070  24.1505146
  38.2388997  17.2034848  23.9250517  61.8522644  23.1372452   5.7331449
  62.4435520  22.7548695   6.3815320  61.5601921  23.9579272   6.1298907
  70.7022190  42.5669956  61.8272591  70.4618597  43.0911255  61.0632229
  70.9409952  41.7131519  61.4664698  48.0485773  40.7776117   2.0027566
  47.7934933  39.8633647   1.8790019  47.4332762  41.1116982   2.6554620
  55.4079533  13.1085753  23.7215471  55.2173233  13.5665417  24.5401788
  54.6471119  13.2820952  23.1672525  47.4175787  44.2483807   2.5691262
  47.3557186  44.9622631   3.2037726  47.9278374  44.6139097   1.8464518
  41.3369608  28.4491158  32.0110130  40.5012512  28.0482864  31.7719364
  41.5241718  28.1089139  32.8859115  25.8902144  44.5997667   4.8609444
  25.3012538  44.5140886   5.6106210  26.2510729  45.4828453   4.9395519
  53.7744665  28.9566398  16.6165996  53.2319355  28.9925909  17.4043810
  54.5831299  29.4061708  16.8619788  36.6787505  25.8981681  11.5590572
  37.1094918  25.6465483  12.3759913  36.0409689  25.2022648  11.4003599
  65.2584171  24.8777103  18.7065625  64.9357414  23.9939499  18.5302663
  64.4666529  25.4048228  18.8137734  69.3094730  34.0034938  25.5114746
  68.9504528  33.9350247  26.3961506  69.9644184  34.6989202  25.5719423
  54.1985846  23.9458036   3.9711297  53.6569214  23.1566668   3.9614990
  54.5443010  23.9881444   4.8627123  44.7132492  35.1682973  19.5682967
  45.0589085  34.2930889  19.3929148  43.8429785  35.1664066  19.1697299
  68.6434412  51.1845541  66.5023041  69.2086220  50.5757809  66.0267067
  67.8799868  50.6614399  66.7466879  61.6623354  21.5800047   0.8275928
  61.0003138  21.1945391   1.4015046  62.2863102  21.9924402   1.4249058
  44.5447159  26.2848020   9.7597933  43.8715887  26.2269974  10.4378736
  44.0609598  26.2226295   8.9361727  66.2615728  74.2651510  66.1805153
  65.8248901  73.4769154  66.5033531  66.9656467  73.9368916  65.6212664
  60.1574707   0.9456430  16.2400544  60.5285311   0.1967713  15.7734311
  60.8436060   1.6122502  16.2071717  37.6071382   7.8345478   2.1629246
  38.5327220   7.6237983   2.2858503  37.5859809   8.7889951   2.0935389
  59.8409557  19.8414743  20.0318384  59.9329948  19.1846859  19.3416309
  60.5626631  19.6592546  20.6336403   4.4328952  71.1523581  66.5020657
   3.9522934  71.8619585  66.9283533   5.0609368  71.5967512  65.9325790
  27.1129704  17.0726418   9.2256647  27.2460818  16.8916130   8.2952124
  26.2545824  16.6974699   9.4222522  30.5783486  35.8505416  24.5828557
  30.8507323  35.9454894  25.4955578  30.6387115  34.9107575  24.4114161
  69.0484905  27.7569413   6.0204303  68.4589052  27.8025341   5.2677393
  69.8431873  27.3479676   5.6777579  38.0665445  20.9188008  27.1476269
  37.2745705  21.4454412  27.0396566  38.7778091  21.4962316  26.8703032
  53.7557745   4.4802845  14.3078065  54.6813393   4.6964943  14.1946280
  53.3012867   5.0325197  13.6716390  22.6423740  30.3468323  17.4335647
  22.4636316  29.4450474  17.7001441  23.5948133  30.3866816  17.3469627
   0.8744976  51.5321922  48.0707264   0.0819209  51.2460804  48.5248089
   1.4781787  51.7752409  48.7726736  61.8296862   0.6083770   6.4107543
  60.9748840   0.4318578   6.0178387  61.8566608   1.5602501   6.5079224
  47.4102831  15.2791846  28.3392692  47.4954319  16.2162471  28.1634927
  46.9611740  15.2336693  29.1833448  60.9873533  18.6688673  38.6219287
  61.3249731  19.4777477  39.0065837  60.5471039  18.2246172  39.3465352
  62.7554369  59.5951986  58.0436230  63.2648134  59.7600698  57.2501564
  63.0160952  58.7157297  58.3171511   3.1502515  59.0236235  64.5645285
   3.6001301  59.0391064  63.7197781   2.8862250  59.9318027  64.7119617
  53.1551504  27.8969812   0.6507994  53.5826159  27.0829678   0.9170406
  53.1313801  27.8534889  -0.3051166  64.9068117  22.8627348  25.4807949
  64.2278862  23.0759478  24.8406124  64.5396900  22.1379161  25.9868503
  18.2126975  17.7245378   4.9667484  17.5218999  18.2196641   5.4070663
  18.9721107  18.3070099   4.9825150  64.1175604  11.3003623   7.5579572
  64.8015451  11.0747814   6.9274694  63.3509445  11.4969909   7.0195669
  40.9800625  19.7180331  14.5384252  41.2839222  18.9404082  15.0066161
  41.6449451  20.3821731  14.7203219  57.1813965  18.0936348  20.5603981
  58.0172110  17.8866041  20.9784746  57.4194336  18.3838415  19.6798587
  39.4805741  23.7372708  20.9384847  39.0859413  24.5996428  20.8088303
  40.4226494  23.9055610  20.9586644  12.5582445   0.8291180  14.3191290
  11.7417383   0.3366502  14.4029391  12.8908205   0.8955759  15.2142310
  55.8455515  22.1888208   5.8030504  56.3168240  21.7590594   5.0893021
  56.3034630  21.9083929   6.5954584  33.2515860  29.4936275  28.8861370
  32.3517776  29.3589258  29.1835141  33.5628510  30.2416492  29.3958545
  36.1851811  39.0526581  14.5527828  36.6392660  38.5033679  13.9137852
  35.7534742  38.4311986  15.1389992  63.3599854  63.7490511  62.8904676
  63.9320898  64.3031549  63.4214067  63.5355568  64.0180254  61.9887686
   1.0616987  74.5834684   9.9246538   0.5127855  74.2942858   9.1957510
   1.4367828  73.7763500  10.2769339  34.5773292  32.5482893  27.5345206
  35.3312731  32.7437210  28.0909419  34.9369216  32.5114202  26.6481972
  50.8378553  21.8271899  19.0871942  50.0344944  21.6026664  18.6176908
  50.6098366  22.6075244  19.5924866  81.1551285  71.7175198  38.6415696
  80.2843952  71.3363266  38.5286689  81.7354870  70.9631491  38.7432766
  39.3875885  29.5095634   9.9551392  40.2504444  29.3099022   9.5920300
  39.1015434  30.2887249   9.4783622  19.9198401  20.0688291  41.9743443
  19.4408607  20.1598024  42.7980757  19.2424464  20.0995135  41.2987471
  15.5927658  63.0416632  60.3284216  16.3597298  62.8427458  59.7913647
  15.0388825  63.5814095  59.7643995   4.3076321   5.0407612  66.1759567
   3.5523784   4.8192134  66.7206955   4.1555691   4.5737898  65.3543472
  57.2897625  40.3338337  16.5821671  56.8441010  40.8968735  15.9492314
  56.9102955  39.4666219  16.4401305  57.6011181   7.4285215   3.0960050
  58.4887648   7.3783916   2.7413228  57.2649240   8.2680589   2.7823469
  75.0867939  65.7095861  61.3755465  74.8241091  66.5892696  61.1046362
  75.2118254  65.2334881  60.5546141   4.7379425  75.0952005  34.8508430
   4.5384836  74.6590853  34.0224385   4.0799797  75.7867622  34.9219394
  39.4180274  23.0294037   1.7480443  40.0342321  23.2081246   2.4583837
  38.6153984  22.7538753   2.1908817  28.7736678  21.9990849  27.3432946
  28.9761066  22.8588319  26.9743967  28.3743119  21.5160322  26.6198277
   9.4065231  72.2759295  14.1336215   9.5030993  72.9627514  14.7933054
   9.7768193  71.4949656  14.5449710  40.1162338  24.6356273   9.0782130
  39.7406244  23.7588906   8.9976776  39.3578172  25.2176666   9.1258115
  45.4183149  16.8713486  26.2217045  46.2558460  17.0106208  26.6637135
  45.6177664  16.9777441  25.2915788  55.7521772  30.2510262   3.9505029
  56.2979698  29.5853209   3.5319567  56.0564709  31.0788083   3.5784653
  13.2018173  68.9795637   4.1701320  12.9476726  68.0899048   4.4153965
  12.7277040  69.5416355   4.7829312  54.8141575  18.4199786  21.9193769
  55.6478024  18.0246198  21.6645098  54.7415352  19.2006779  21.3703156
  24.8863220  10.0465441  30.0291276  23.9367676  10.0292861  30.1486373
  25.0206041   9.7377300  29.1331196  41.5179920  29.9196815  14.4537354
  42.1653748  30.6073403  14.6094751  40.6733656  30.3582907  14.5559835
  11.6244829   9.5587176  65.5892229  12.4594665   9.5359933  65.1217651
  11.7694914   9.0170908  66.3650131  50.8893538  31.7185998   6.8607795
  51.7175531  32.1955562   6.9139576  51.0199165  31.0904145   6.1504495
  57.3729897  28.2783890   3.0310941  58.1597281  27.7433372   3.1359825
  57.0141459  28.0132198   2.1842480  33.0622554  19.7365582  23.5676885
  33.9540720  19.7696364  23.2215667  33.1255627  20.1429629  24.4320130
  63.2028008   1.5496218  15.9897935  63.4751415   0.7256722  15.5858505
  63.7830353   2.2074790  15.6066740  52.6427126  24.9528098   1.5116856
  53.0382347  24.5918345   2.3050892  52.3218250  24.1875720   1.0345329
  23.2867384  23.6940908  10.9454536  22.8514194  23.5159183  11.7791104
  23.6935186  24.5520973  11.0662389  57.6265621  18.6542284   9.9687606
  57.8033304  18.1987441   9.1456461  56.7236996  18.4195590  10.1832497
  56.4582586  20.9715414  22.9435945  56.3184023  20.3678107  23.6731029
  57.4045229  21.1151290  22.9295659  22.5472283  24.7601843  53.6680508
  22.3641014  24.9302602  54.5920467  22.7046680  23.8170147  53.6247396
  42.4302530  13.3458364  23.2185388  43.0288458  12.9639924  23.8604999
  42.9909229  13.8811994  22.6570559  34.9990439  14.1547513   5.0947261
  35.2870297  13.7226140   4.2906404  34.8505735  15.0647426   4.8376170
  32.3596907   4.9348238  26.3184094  33.1936502   4.8323917  25.8598757
  32.2434378   4.1106266  26.7910767  48.8766050   6.1839420  15.3213513
  49.2782116   6.0749656  16.1833668  48.8104963   5.2945387  14.9737549
  26.3803720  24.3637753  39.0562940  25.8571601  23.5985637  38.8176942
  27.1086884  24.0068889  39.5646453  46.1396933  20.3217435  14.5781398
  45.6161737  21.0233617  14.9652958  46.4425898  20.6811261  13.7442732
  54.4906569  21.1213565  20.9308720  55.1970100  21.2057424  21.5713215
  54.1104650  21.9981408  20.8766937  22.1620464  19.3494093   8.3304292
  22.6918721  18.5584450   8.4298897  21.5589118  19.3286777   9.0734160
  66.0088253  40.9920311  59.1024876  66.3061714  41.7053747  58.5377312
  65.0902510  40.8654547  58.8649321  57.5031900  28.1160378  19.1581213
  57.3571014  29.0575027  19.0657306  56.6353083  27.7271891  19.0494370
  23.8419056  72.3541737  32.5748420  23.0386353  72.5860262  32.1087623
  24.4633794  72.1276522  31.8829679  34.1208792   7.6629585  10.5724001
  34.2984223   7.1499026  11.3607430  33.5750818   7.0912904  10.0324619
  20.4685116  25.6060171  25.7239604  20.4400826  24.6707606  25.5221748
  20.6054544  26.0297918  24.8766732  45.4992104  15.3663242  13.7610650
  45.6214523  16.2982213  13.5797942  44.8831749  15.3435564  14.4933307
   2.6279211  68.5462284  60.0734758   3.3636492  68.2846928  60.6271315
   2.7400500  68.0378342  59.2702389  24.5042539   6.8108386  23.9061475
  25.3014493   6.8738967  24.4322014  23.9887047   6.1269271  24.3335891
  66.3273048  38.5726881  10.4695714  65.9746552  37.7543736  10.1199567
  67.0656681  38.7794518   9.8965907  44.3172503   7.1022719  16.0486770
  45.0368547   6.7022747  16.5369475  44.6640110   7.9463017  15.7595348
  50.7337570  22.9642367  10.2278948  50.8482027  23.8374329   9.8528451
  51.4668560  22.8666067  10.8355713  71.0602665  44.7266388  45.5166674
  71.6274309  44.2936897  44.8786163  71.6183662  45.3905821  45.9215593
  38.7911534   7.0762587  11.5312481  38.1527281   7.2180337  10.8322883
  38.3886909   6.4134181  12.0924067  64.1687536  33.9806890  23.7194276
  64.8697710  34.4935274  24.1216731  64.4394684  33.0703044  23.8383746
  37.2768974  10.4016638   1.2553328  37.0639181  11.1479521   1.8156245
  36.4653420  10.2181268   0.7821275  41.9321156  26.0250020  10.7582796
  41.4897823  26.1464930  11.5984070  41.3599873  25.4331946  10.2697444
  62.1176386  21.5592766  11.8935108  61.5319490  21.9456458  12.5445986
  61.6162395  21.5794444  11.0783875  34.3354774  24.5044494  10.8879733
  34.0111113  25.0813365  11.5795064  34.0390873  24.9144506  10.0753951
  73.1393957  70.2303219  51.9532728  73.6707306  69.6626425  51.3950109
  73.2122374  69.8440695  52.8260469  25.0365901  32.4935269  15.7656467
  25.6574893  33.1130910  15.3824258  25.5113697  31.6627312  15.7899714
  34.2059875  31.1559749   5.6196910  34.1038799  31.6147780   4.7858423
  35.0794053  30.7670546   5.5736870  47.4670506  18.0778027   0.8842169
  48.0980730  18.7446153   0.6132935  47.3773289  17.5084066   0.1200373
  58.2779884  32.9410195  14.0380657  58.3334827  33.8963604  14.0599144
  59.1799021  32.6518178  13.8996887  52.7285194  31.6341043  12.2658134
  53.2310963  31.7345929  11.4573896  52.4429131  30.7205367  12.2582936
  44.9474478  47.6205969   7.2619337  44.7644949  46.7724133   6.8577772
  44.5117998  48.2557058   6.6935313  64.1249418  13.0781829  12.2040820
  64.5089769  13.4513187  11.4106607  63.9695692  12.1592760  11.9856775
  63.6473322  25.8782649   6.1416638  64.1679144  26.3998079   6.7525780
  64.1977930  25.1204681   5.9442574  55.3939295  20.8275723  12.4029255
  55.4251432  19.8975551  12.6272583  55.5958414  21.2786031  13.2227027
  47.1981573  51.1565828   8.2037359  47.7154350  51.9198561   8.4607607
  46.7466545  50.8922815   9.0053123  46.7464018  17.8555346   6.2819898
  47.7004290  17.9290998   6.2564230  46.4984894  17.6415992   5.3825450
  61.6978407  21.1889577  39.9217534  61.2451267  21.3490319  40.7497978
  62.4166965  21.8209720  39.9157262  42.8489017  21.2309313   0.6984077
  42.6711130  21.9809127   0.1308234  43.2873583  21.6068649   1.4617303
  28.3321333  51.2239981   9.0735251  28.0464697  50.5359554   9.6745461
  27.9654360  52.0289660   9.4393015  26.7003751  76.2278318  11.5864456
  25.9192657  75.7687998  11.2775981  26.4618063  76.5478897  12.4564338
  26.0741329  11.6332781  12.7898490  26.3710928  11.0179842  12.1194303
  25.3095269  12.0591712  12.4022627  60.0760031  38.6671042  16.3934362
  60.7005644  38.9865899  17.0446503  59.3137312  39.2374873  16.4926302
  47.1420860  28.9413071  21.5889692  46.9169283  29.5971036  20.9290695
  46.4676523  29.0368652  22.2614622  55.7117319  26.3694143  16.4534998
  55.4222012  27.1421766  16.9385183  56.4396620  26.6824913  15.9165359
  61.0457897   7.7658707  15.4661429  61.5464830   6.9885486  15.2185345
  60.6334400   7.5304532  16.2972713  56.4731359  67.1081305  53.5377312
  57.0470381  67.6253176  54.1028643  55.9098053  66.6273308  54.1441345
  26.7769361  23.9114976   9.5063591  25.9606123  23.4697294   9.2725080
  26.4988804  24.7537303   9.8663050  67.1114826  56.9291115  63.0016327
  66.9957685  57.6580048  63.6111879  68.0578566  56.8765020  62.8680849
  58.5101986  27.0650601  21.5532756  58.4128714  26.1275530  21.3864207
  58.0473900  27.4865341  20.8291221  67.1163940  59.6906900  46.0956573
  66.6415739  60.1338911  46.7987585  66.8491459  60.1500559  45.2995443
  40.7513857  29.2561793  17.9837000  41.5129375  28.8425422  17.5772774
  41.0663223  29.5505404  18.8383329  62.1880722  35.3809810  22.2214961
  61.3380432  34.9890089  22.0213890  62.5658894  34.8065519  22.8874683
  54.0142059  25.6864905  23.8264203  54.8396492  25.2978349  23.5369015
  53.4881067  24.9418640  24.1179395  16.1091268   9.2023212  14.1370082
  16.1312330   9.6104217  13.2714462  16.9329071   8.7182868  14.1947007
  61.2771130  11.0808182  21.4736581  61.1080074  10.4716074  20.7549810
  62.1810770  11.3652551  21.3388419  41.1134291  50.1508427  10.4163730
  41.5471077  49.7231913   9.6779490  40.5883312  50.8443022  10.0168467
  42.9092550  27.9033375  17.0635235  42.8439140  27.1281481  16.5058112
  43.5845232  27.6810288  17.7044785  41.5522385   3.5065073   6.3318616
  41.3771296   2.9498923   5.5730808  41.2246323   4.3690073   6.0769093
  13.2788241   0.8170898  58.5970306  13.8069284   0.0208576  58.6549187
  13.5262322   1.2081977  57.7591419  56.6971016  16.3493538  23.6296201
  57.3217297  17.0322704  23.3852959  56.8218517  16.2366724  24.5719433
   7.4975401  64.8906803  53.6684799   8.3844095  65.0323629  53.9995670
   7.6081431  64.7894239  52.7230978  76.9593334  30.6065726  49.5162344
  76.2697458  30.0103164  49.2243814  77.5918913  30.6111383  48.7978458
  11.9855750   2.3488820  60.3379917  11.7664659   3.1929055  59.9432182
  12.6697683   1.9904360  59.7726345  41.2088442  41.6452456  16.9479334
  40.9951830  41.3602972  17.8364062  41.6281843  40.8841038  16.5466285
  18.2564723   5.9605205  15.7532132  18.3789456   6.7471582  15.2217686
  17.3190403   5.9453714  15.9461474  57.5423622  72.5463057  63.7658691
  57.1385241  71.6859722  63.6519575  56.8032551  73.1507778  63.8334084
   6.4539129  76.6511679  21.1174822   6.2545276  76.2605953  21.9683218
   7.2897017  76.2594223  20.8640575  64.1636562  24.5076323  15.8692813
  64.2684746  24.8880863  14.9972153  64.6295357  23.6726880  15.8239126
  62.9379272  37.0297170   9.0543997  62.7998257  37.6480627   8.3368987
  62.7801085  37.5430846   9.8467255  55.3222513  43.9724874   1.3616383
  54.9478483  44.8492050   1.4477588  55.4049587  43.8390589   0.4173983
  55.5060816  37.9014754  19.0795493  55.5851984  37.7833986  18.1329608
  54.9085522  37.2076035  19.3583572  64.6762276  37.7423620   4.9125159
  64.2587423  38.5539317   5.2011186  64.9784994  37.3279691   5.7206887
  27.7247167  12.3817849  41.7477369  28.3454704  11.6748095  41.9240379
  27.9316998  12.6657784  40.8573771  66.1223412  60.8052301  23.0251551
  65.5723143  61.2993240  22.4172258  66.7008829  60.2916718  22.4614382
  52.9551438  50.3962717   0.1002349  53.3405331  49.8219035  -0.5614338
  53.5557154  50.3420315   0.8436098  62.9224682  14.1264164  14.4112039
  62.8965616  14.9786198  13.9761043  63.1673717  13.5117078  13.7195468
  53.5471249  77.1566534  63.3224344  53.5781479  76.4964771  62.6300192
  54.1981077  76.8650484  63.9607286  42.4530315  40.4412937  20.2339935
  42.8582525  41.3084745  20.2294254  41.5841103  40.5809689  19.8575664
   0.6000475  35.3126788  30.1722455   1.4089182  35.6280804  30.5753350
  -0.0970275  35.7585120  30.6534433  35.6170535  43.1381702   9.8479366
  36.5098453  42.8275299   9.6974200  35.5770302  43.3048630  10.7896602
  50.4465580  33.9149618  17.1797848  50.1186180  34.8138952  17.1551335
  50.3527355  33.6010337  16.2804091  41.5092421  59.3440676  17.7517712
  40.6051683  59.4350863  17.4507809  42.0185328  59.2303181  16.9493270
  48.9546013  26.6445398   6.8631542  49.3719006  25.8716416   7.2435725
  48.1266832  26.7270923   7.3364103  58.1064558  46.8292809   3.0231574
  58.8852549  46.4631748   3.4422874  57.4500895  46.1357784   3.0900115
  75.9380198  15.1250064   3.8564995  75.8424950  15.8175051   4.5103741
  76.0368538  14.3230462   4.3696508  54.3322134  18.1524944  57.1156693
  54.5933151  17.2468710  57.2827053  53.6507416  18.3288074  57.7643156
  66.7100620  34.7984552  24.7665095  66.7164612  35.5293226  25.3845906
  67.5898075  34.4261050  24.8267722  57.7457380  46.8664503   0.1573222
  57.3061657  46.1407042  -0.2857364  58.3985901  46.4454889   0.7166103
  60.8468580  40.0431442  20.3217959  61.1100912  39.8900533  19.4143248
  60.8206606  39.1704082  20.7140660  63.0366755  20.1011395  14.7724617
  63.4560347  20.6415462  14.1028893  62.5000477  19.4812715  14.2784727
  77.9008484  41.4133167   0.9425653  78.3961487  40.7895517   0.4116905
  78.0825710  41.1559010   1.8464169  76.2227821  16.6150880  26.6518617
  76.1141062  17.4004757  26.1155915  76.2378788  15.8948803  26.0215402
  47.7741814  55.1854467  10.5461621  46.9983912  55.0173283  10.0112653
  48.5068226  55.1156425   9.9341196  15.4708004   6.5178949  66.6535330
  15.4598808   5.6621569  66.2247849  16.0374987   7.0556730  66.1004686
  13.5204089  46.5710926   9.2178851  14.0135515  46.3217211   8.4363121
  13.9195871  47.3938847   9.5005608  41.9947672  48.9004850  15.2190244
  41.9029665  48.7034035  14.2868423  41.1309576  48.7176847  15.5886805
  63.3497238  32.1981406  26.7385387  62.9748297  31.4524913  27.2072554
  62.5951624  32.7401829  26.5081930  62.8430557  29.0797591  17.9391444
  63.7457037  29.2352295  18.2171464  62.3987055  28.7722397  18.7292171
  55.2953196  42.2253609   5.5661076  55.3229761  41.5362167   4.9023715
  56.0887814  42.7381516   5.4121602  67.0212460  28.4010053  29.8625970
  66.6715050  28.3593249  30.7526398  67.9708004  28.4310389  29.9795437
  38.2287264  25.8767128  28.9027262  37.7598834  25.7867384  29.7323775
  37.6688337  26.4427710  28.3713794  78.4814978  63.0677986  62.3056364
  78.2861090  62.7596283  61.4207172  77.6246214  63.2568407  62.6880741
  56.7137289  34.6126890  23.4419036  56.3238239  33.9896393  22.8287029
  56.0952330  35.3427958  23.4672165  55.7623768  46.7380047   8.2703823
  55.2882338  46.6614342   7.4423981  55.2337742  46.2423658   8.8958085
  59.3169928  45.5858707  18.5645556  58.7675667  45.3174829  17.8281236
  60.1427317  45.1210356  18.4292173  55.1026058  39.6041369   7.2860903
  55.1386595  40.2287674   6.5616816  54.2171812  39.2425990   7.2467613
   7.0060718  51.6342258  31.4156604   7.9501909  51.7514277  31.3101411
   6.8358940  51.8700266  32.3276210  51.5985632  44.0539122   9.2464244
  52.1462345  43.8359404   8.4922510  51.1652899  44.8709774   8.9996278
  34.2198324  33.7458515   3.1810606  34.4274259  34.3996406   3.8486642
  34.9824762  33.1675768   3.1668159  25.6257057  14.2248976  64.3562269
  26.0139990  14.4906127  65.1898098  25.3851223  15.0479698  63.9308977
  53.4080935  49.0977335   9.1128200  53.6266041  49.1198969   8.1811589
  52.7069187  49.7420883   9.2097700  11.1352146  73.6095428  51.6064262
  12.0187974  73.8743401  51.8621540  11.2288737  72.6978064  51.3303900
  40.4578447  38.4042072   3.9613405  40.6042147  39.3274188   4.1674653
  40.7167339  37.9374313   4.7559029  57.8150177  34.3387651  25.8865786
  57.5004053  33.5473108  26.3234401  57.2572517  34.4233203  25.1132870
  30.5060911  17.5593138  61.7275667  29.7072506  17.0346510  61.6744804
  30.3748894  18.1185687  62.4932384  74.7959757  49.3720102  12.7498949
  74.5815802  50.2286100  12.3804283  75.0724077  49.5603800  13.6467409
   1.1147749  58.1341410  57.3353672   1.6910970  57.3870182  57.4962807
   0.2452294  57.7477932  57.2311544  17.2882664  71.7426062   6.1594987
  18.0773258  71.8590689   5.6302989  16.7041647  72.4462080   5.8766443
  61.2682152  35.4570413  28.3736944  61.3985634  34.8935556  29.1364026
  61.7409277  36.2616420  28.5867596  61.8077850  42.9537153   9.0669417
  61.3701582  42.5945759   8.2951027  62.7060938  42.6288557   9.0057993
  28.1538630  74.5395231  53.4555864  27.2192764  74.5403433  53.6624146
  28.5533071  74.0211487  54.1541290  62.2792387  52.1222115  10.5093944
  61.6415071  51.5110445  10.8781826  62.6848459  51.6395092   9.7891784
  72.8086996  33.5621858   4.9577466  72.7782583  34.0839219   5.7596809
  72.4307060  34.1312480   4.2872843  51.2936735  51.1516571  21.4670539
  51.5162897  52.0470762  21.2122893  52.0788097  50.6428671  21.2647533
   5.4462308  49.5627546  19.6386003   5.5778253  49.7274685  18.7049055
   5.3020257  48.6182976  19.6972084  18.4172595   4.0229636  65.4246378
  17.5490499   4.2734700  65.1089048  18.6231661   3.2194078  64.9470091
  40.2915239  41.9418287   4.0226218  39.6698952  41.7467785   3.3213648
  40.8787727  42.5975561   3.6465940  55.6706762  38.0822730  16.0769153
  54.7522259  38.3327389  16.1766410  55.6417274  37.2454286  15.6131446
  71.1354542  36.9826293  28.2654524  71.2017822  36.2076807  27.7075219
  70.3094435  37.3925734  28.0087709  62.7192831  58.0393362  14.9505293
  62.2020769  58.8401794  15.0364149  62.9301023  57.9892015  14.0181804
  11.7234910  23.9238262  58.6908054  11.5381086  23.5751653  59.5627594
  12.4199438  23.3618045  58.3512163   1.0712335  55.5734968  38.9062047
   1.1281352  55.2233267  39.7952342   0.1641386  55.8673334  38.8221216
  67.9685116  35.3185701  37.7099395  67.3893595  34.6519876  38.0793762
  68.7036037  34.8234463  37.3483777  31.7966819  35.0344396  15.6628585
  31.4684963  35.3816819  16.4922857  32.5124335  34.4506359  15.9140682
  32.2611403   9.3971145  63.2345724  31.8818498  10.1667750  63.6588287
  32.0226407   8.6669081  63.8056660  62.4676037  39.2287755  24.4138050
  63.0225277  39.9520659  24.7055960  63.0635834  38.6427474  23.9473200
  58.2748508   5.1845062  42.0189714  58.8594437   5.5234885  42.6968908
  57.8356981   5.9607351  41.6713476  28.6746120  10.2283132  65.5507565
  28.7171364   9.3078363  65.8098793  27.7894378  10.3387678  65.2036285
  57.7088213  41.2715149   7.2847211  57.7145147  41.7539692   8.1114256
  56.8189096  40.9258890   7.2152317  74.3941927  44.0070724  16.5085399
  75.2565098  43.6894274  16.2406981  73.7763882  43.4697294  16.0127401
  31.7586017  31.3157558  25.6346130  31.6742516  32.2001576  25.9909177
  30.8565712  31.0174465  25.5180740  61.1434126  59.4081211   0.5652333
  61.6019821  58.8328314  -0.0471258  61.0606909  60.2389526   0.0971389
  45.7185841  34.8225260   4.1944411  46.3327503  34.2721200   3.7085551
  44.8753929  34.6769190   3.7654182  45.7277870  35.9633923  13.8458681
  45.3763962  36.1356163  12.9723144  45.4186010  36.6970110  14.3773198
  68.1303167  18.7284780  10.0012827  68.0897045  19.6081567   9.6261179
  67.9438972  18.8559544  10.9314597  66.9816303  12.1013355  25.9444785
  66.2994766  11.8333471  25.3287792  67.0262766  11.3858664  26.5787816
  60.4205370  50.5347586  20.7482123  60.1761007  51.4374685  20.9521770
  60.0757027  50.3863668  19.8677003  55.6221771  52.9871511   2.7645400
  54.7230148  53.3136845   2.7980050  56.1554527  53.7684965   2.6184183
  56.6571045  31.8543482  26.8499994  57.3058033  31.4287257  27.4105930
  56.2209320  31.1323333  26.3975811  43.0484915  42.1713781  14.1515183
  43.0465937  41.5894556  14.9115133  42.5856304  42.9548025  14.4485676
  57.8990936  44.6826315  13.2204247  58.6671019  45.1978064  13.4673870
  57.9011869  44.6933222  12.2632861  68.7312746  64.1324234  17.6396894
  68.9228058  65.0601864  17.5025690  69.5880842  63.7059975  17.6232255
  57.7299452  29.3889713   9.3166840  57.8752089  30.0283909   8.6193508
  58.4820414  28.7994432   9.2615551  63.6321068  60.6864405  62.6852226
  64.4045591  60.4104519  62.1918869  63.7390518  61.6320324  62.7883911
  47.9216909  48.2817507   7.4241233  46.9929647  48.0997086   7.5675285
  48.0377722  49.1838694   7.7223504  50.3314400  15.8763230  29.7030902
  50.2744961  15.3137171  28.9307809  49.4536829  15.8498204  30.0839686
  27.6491475   8.4120482  62.6852942  28.0763364   9.2375958  62.9137897
  28.3556414   7.8627837  62.3455811   4.1873491  73.5016394  54.5805645
   3.7718490  73.2753229  55.4126501   5.0695699  73.7835979  54.8222589
  52.7959919  51.2666130   3.9826486  53.0081463  52.1793604   3.7874258
  52.8303862  51.2117052   4.9376529  60.7612419  33.3237076  12.7276635
  60.7630968  32.3668814  12.7543187  60.2551794  33.5405207  11.9446409
  60.3692532  25.8286786  13.7982774  61.2853384  26.0649109  13.9439189
  59.9282408  26.6639662  13.6432552  53.9182377  28.3891726  24.0628433
  54.0812349  27.4464035  24.0337253  53.0674219  28.4983730  23.6380863
  58.7844706  30.8076787  28.0199456  59.5093775  30.7760048  27.3956585
  59.0157032  31.5169406  28.6197019  74.8933029  56.0036516  46.7865801
  75.6767893  55.6817436  46.3407660  74.2257404  55.3420210  46.6053724
  52.1371269  10.0205123  11.2257636  51.3768005   9.8200691  10.6799102
  51.7694044  10.4380965  12.0046318  69.4827271  38.8945150  26.6310954
  69.4858599  39.8516679  26.6399264  69.0009928  38.6638951  25.8367562
  40.2896833  25.6870890  12.9044533  39.8276711  26.2708759  13.5060930
  40.0340176  24.8070812  13.1809592  53.4113789  15.9152436  14.1779470
  52.6425886  15.9270275  14.7480798  53.4815168  15.0053287  13.8892102
  63.7886524  28.2849526  20.5260062  64.5209646  27.7726674  20.8688092
  63.0119467  27.8815126  20.9135604  57.2647858  30.7937837  18.8017917
  56.3831139  30.9745765  19.1276705  57.1500826  30.6629205  17.8605425
  54.6932077  19.3958294  28.1056237  53.7648487  19.5835555  27.9672599
  54.7057629  18.7711394  28.8307691  79.0086794  28.1474519  15.4077661
  78.5094976  28.3073354  16.2086940  79.3904352  27.2786355  15.5328858
  50.1752853  57.7105761   0.2663534  50.3303289  58.5830307   0.6283148
  49.4237661  57.3778009   0.7569808  56.4705467  65.2596617  18.7107944
  56.8222094  66.1405087  18.8399279  57.1907425  64.6766615  18.9509130
  63.9559984  55.2888155  25.3186607  64.2655039  54.6433592  24.6831870
  63.7915850  56.0761261  24.7996783   4.6344078  27.8763866  13.8908684
   5.0018585  27.4881124  14.6848810   3.8424656  28.3245945  14.1877973
  65.6075048  40.6041002  28.8368344  64.8788595  40.0413132  29.0987110
  65.8096552  40.3330469  27.9413462  35.3776908   8.2382315  64.1405058
  35.1294899   8.2410002  65.0649595  35.6864572   9.1285974  63.9727402
  57.7792883  35.4565120  28.4026146  57.6718521  34.9807310  27.5790119
  58.2418299  36.2579417  28.1576705  76.9655132  39.8521996  16.3837826
  77.8584099  39.6253300  16.6435909  76.4779568  39.8863626  17.2067976
  -0.1110172  36.6876626  26.9776201   0.5768215  36.4447093  27.5973654
   0.0872433  36.1820173  26.1894274  76.0052538  36.0163498  18.8263011
  76.7101955  35.3733087  18.9023721  76.0947418  36.3661098  17.9397964
  55.9882021  29.5252943  25.3422141  56.6181087  29.4719672  24.6234632
  55.1974821  29.1090584  24.9990845  21.1098146  50.8033895   4.5140019
  20.5988407  51.5489149   4.8291650  20.4631305  50.2213478   4.1149294
   3.7190261  68.7573528  65.7130718   4.4452766  68.4454679  66.2529993
   3.8328362  69.7073221  65.6841135  28.0760860   8.7229651   2.0754425
  28.3530283   8.3580875   2.9159182  28.8914061   8.8570070   1.5922053
  64.5197296  24.0234828  30.1771593  64.7266674  24.8598504  29.7601461
  63.9819574  23.5616970  29.5338964  66.2992573  36.4774847  33.3291292
  66.1532736  35.5316830  33.3097148  66.2638617  36.7062831  34.2579079
  81.2511444  40.4515934  36.1869717  80.3332043  40.1803255  36.1921740
  81.3023090  41.1103201  35.4943752  61.9417572  39.1335988  10.7410645
  61.1031008  38.7883449  11.0471404  62.3318815  39.5372939  11.5163481
  63.8385916  54.9047804  13.5057306  63.8556004  55.7236338  13.0103266
  63.0450296  54.4605970  13.2070696  79.5255375  54.9126291   7.4272645
  80.3355694  55.2971458   7.0922571  79.7909880  54.4493484   8.2217073
  79.8140860  48.6695719   9.8890924  80.1203251  48.8565016  10.7765079
  80.5472946  48.2159996   9.4732636  49.7995520  47.5650120   5.3254217
  49.3034029  48.1977510   5.8447587  50.6880140  47.9202747   5.2999258
  75.0350189  31.6548419   8.5010552  74.1878605  31.2533069   8.6942470
  75.2678919  32.1208453   9.3040764  48.8336515   5.7460201  64.4734383
  49.4164038   4.9867171  64.4830036  48.2448483   5.6053990  65.2148962
  66.0005140  66.7613268   8.7293959  66.0829353  65.9474897   9.2264974
  65.6077385  66.4954138   7.8979814  34.7880673  18.7910390  65.7270479
  35.4948807  18.5380995  65.1331854  34.3057442  17.9794157  65.8847284
  49.7175169  41.1437368  13.7398422  49.5586252  41.9682741  14.1993237
  50.6301022  41.1994743  13.4564483  54.5199537  31.2611103  18.7143862
  53.9454269  32.0191979  18.6073601  54.0978146  30.7346034  19.3932211
  60.0428915  25.5342174   9.9188995  59.3952560  25.2598596  10.5681515
  59.8211193  25.0343156   9.1333139  26.4634895  74.9443769  21.4526105
  26.0669875  75.3843641  22.2045612  26.6834617  74.0703964  21.7751074
  46.1210203  47.9516363  12.7339697  45.4961014  47.2457695  12.8996885
  46.8778849  47.7341080  13.2780898  46.0790110  39.3379307  12.3613071
  46.3755417  40.2472782  12.3985565  45.7568121  39.2275238  11.4667511
  46.7031527  21.1962390   1.2867387  45.8250809  21.3907170   1.6144612
  46.5570450  20.8212399   0.4182564  67.5488234  29.0474939  27.2440839
  67.5326967  28.9509940  28.1962729  66.9825315  28.3459187  26.9226217
  76.9982815  42.1553230  18.9446366  77.8039360  42.6721525  18.9510953
  77.0944548  41.5526056  19.6820068  65.3406239  60.8614206  11.9535995
  65.1484442  60.3923368  12.7655482  64.6135569  61.4760160  11.8542147
  50.5645132  51.9963217  12.9939353  50.0932932  51.1640644  12.9548514
  49.9167013  52.6234865  13.3152378  49.9607706   1.7029899  63.9699411
  49.3246174   2.0041110  64.6186829  49.4774008   1.7004037  63.1437588
   5.1258332  61.2423897  60.3084230   4.2696574  60.9621811  59.9848795
   5.0519377  62.1933270  60.3889894  68.5077381  55.8659458   6.6222388
  68.6536551  56.0924530   7.5407344  68.1235027  54.9896860   6.6497695
  51.7514849  53.9453030   4.7731909  52.0443869  54.1514015   3.8855183
  50.9169722  53.4926510   4.6510047  63.6364317  66.3521719  10.9743845
  64.5808506  66.4708185  10.8732331  63.2860756  66.4542484  10.0894761
  37.6523137  77.1515274   7.7748036  37.3132396  76.3008308   8.0533296
  36.9447827  77.5328350   7.2549623  72.1335602   7.8862828  33.5849237
  71.6106081   7.1827585  33.9693785  71.9707346   8.6417979  34.1496515
   0.7179272  46.8752766  22.4897313   1.5092020  46.7509508  23.0138111
   0.7597305  46.1869621  21.8258715  62.8052330  52.9980803  23.1637430
  62.2785854  53.6356449  22.6816869  62.1770859  52.5447702  23.7260389
  15.0169516  28.1976581  59.8703623  14.2007077  27.7063799  59.9632215
  15.2322745  28.1307292  58.9401007  64.7741508  64.8450041   0.7234371
  64.1984224  64.8831797  -0.0403093  64.3086433  65.3378773   1.3991643
  60.0743055  50.7378244  11.1808527  59.7096252  50.6243896  10.3031456
  59.4797611  50.2514172  11.7519510   0.5946470  15.0156641  38.1820750
   0.0302336  15.7885635  38.1992817   0.4786362  14.6151400  39.0436745
  66.3154173  37.0860100  17.1167445  66.0222578  36.3816404  16.5386868
  65.6924248  37.0744705  17.8433645  67.3799992  38.8710499   5.1725858
  67.2744560  39.7782922   4.8862189  66.6230631  38.4144163   4.8054805
  45.2641869  61.4848280   2.7995431  46.0037851  60.8843565   2.7065030
  44.9503088  61.6185999   1.9052173  74.9520683  64.8434544  24.2093754
  74.4105625  64.0688610  24.3610549  75.1211500  64.8367405  23.2672501
  22.0494366  57.7020836  56.2212038  22.2910118  57.8468895  57.1360302
  22.0693827  56.7509031  56.1158895   6.8709439  37.6229382  18.1952035
   7.7130455  37.9259014  17.8556299   6.2438339  37.8340507  17.5035405
  53.7080383  63.9455175  14.7037745  52.9290342  64.4895697  14.8195362
  53.3861208  63.1555939  14.2694688   9.8012078  75.3825045  65.3013945
  10.4406178  74.9990511  65.9016895  10.3270769  75.7281351  64.5801258
  62.4977112  45.4139566  10.2833843  62.3149586  44.5253325   9.9781322
  62.6090050  45.9245491   9.4814223  65.9064245  27.7814484  12.9267812
  66.7049599  27.7453566  12.4002194  65.6258821  26.8691564  12.9992604
  30.5629921  61.0524368  19.1275358  30.7901692  61.7551804  19.7364461
  30.9286666  60.2626848  19.5260477  51.6819859  67.5577736  17.5268376
  50.7796288  67.4796391  17.2171903  51.8406582  66.7465591  18.0095255
  67.1418047  34.9614048  13.2557225  67.8111458  34.7256899  13.8981044
  67.3929691  35.8357573  12.9579639  74.2076874  48.6560440  29.6130085
  74.1380692  49.4022322  29.0175390  73.7096691  47.9601192  29.1841769
   0.7476955  49.8136139  22.5456381   0.8415415  48.8636827  22.4745059
   1.5522860  50.1631260  22.1626139  68.3806181  66.0003042  36.7098284
  68.9856958  66.6943169  36.4481759  68.9404917  65.3286600  37.0992637
  55.1269531  66.4391613  30.8181643  55.4222918  66.9470072  31.5738773
  54.7401047  67.0878029  30.2300811  70.3389645  47.4614906  25.0460792
  71.1494398  47.8474522  24.7138333  69.8155165  48.2109547  25.3298640
   0.9737671  40.3753376  27.4193716   0.4244685  40.6564188  28.1511474
   1.2262752  39.4787908  27.6399899   7.4646324  46.8689489  31.3806343
   6.7355371  46.2502003  31.4230871   7.6771760  47.0518208  32.2958469
  62.4521685  55.2964115  27.8289819  62.9330873  55.5580425  27.0438099
  62.9986525  55.5959749  28.5555124  39.2101288  75.1246691  22.3567009
  40.0269938  75.5809784  22.5585628  39.2144370  75.0361633  21.4036107
  42.2674656  22.4942899  59.7692490  42.0639801  22.9835677  58.9721107
  42.1932507  21.5753627  59.5117664   3.1264153  73.1293106  14.7305167
   3.4434032  73.2675123  13.8379633   2.5846624  73.8968658  14.9138176
  37.5794673  52.9575014  16.3199186  36.8965960  53.0907297  15.6625235
  38.1742978  52.3218632  15.9219563  71.0330391   1.5944016  33.5612035
  71.0542011   1.2266707  34.4446945  70.9874678   0.8312861  32.9851723
  48.8718414  62.7605438  36.8882060  49.1366577  63.6096668  36.5345192
  48.2479954  62.9741144  37.5820613  77.6687479  37.3010230  11.1212897
  76.8219471  36.8978977  11.3127267  78.1963301  37.1322060  11.9019246
   5.3669608  60.8859015  10.4585123   5.2834731  61.0891533  11.3901508
   4.5409232  61.1796522  10.0743186  79.9591589  24.6403456  23.2820201
  79.0818119  24.9341297  23.0366993  80.0987148  25.0061178  24.1555023
  17.8941035  10.2376187  64.6550512  17.4028921  11.0371244  64.8440838
  18.2326734  10.3683031  63.7693167  39.8146006  31.6355886  66.5872973
  39.9758336  32.5724783  66.4756391  40.1506230  31.2373629  65.7843399
  68.7596464  48.2911062  10.6818950  67.8893280  48.5770988  10.9593534
  68.5920382  47.5857782  10.0568771  79.3164492  67.6184082  37.1119118
  79.2757416  66.7483234  37.5088072  78.6975622  67.5782633  36.3828015
  63.8225079  66.7012072  13.9513588  63.6890364  66.3231993  14.8205698
  63.0592775  66.4186335  13.4475148  80.1684093  32.9556847  32.2753739
  80.6610775  33.7442374  32.5027227  80.6220245  32.6021385  31.5102148
  52.4710560  56.0288620  17.3483932  53.2735825  55.9569311  16.8316650
  52.7730799  56.2406397  18.2316613  46.0849953  65.8144665   2.8858754
  46.5586948  64.9844694   2.9400957  46.6913652  66.4077997   2.4425885
  72.2883177  49.0986347  10.2888834  72.0010090  48.2538557  10.6353462
  71.7155409  49.7383165  10.7119203  69.1472912  33.8648415  18.6149156
  69.0658617  34.3935990  19.4086516  68.2477522  33.6221576  18.3954573
  61.9016123  60.1755190  20.6432915  61.7077446  61.1043310  20.7695818
  62.8417683  60.1491022  20.4654145  67.3616838  43.4990120  36.6611266
  67.3520422  43.0504513  35.8155870  67.3017406  44.4283676  36.4399266
  34.1415811   7.7552426  53.1477070  33.4266901   8.3909279  53.1150436
  34.0797925   7.3700154  54.0217876  52.6109314  45.1866722  12.1021640
  52.4938393  44.6553802  11.3146055  51.9420338  45.8678818  12.0331693
  68.0266809  46.1595488   5.7490337  68.6940193  46.8456411   5.7363319
  68.4929180  45.3773594   6.0440516  28.7369227  58.8504887  18.1534278
  29.2504239  58.1119061  18.4806049  29.3892336  59.5107937  17.9195094
  61.8488598  33.7130427  25.3271222  61.6673994  34.6239734  25.5584478
  62.7960682  33.6843085  25.1922226  73.0670404  39.4540739  23.9182568
  73.1945229  39.0846157  24.7920299  73.6902809  38.9825463  23.3655715
  81.2262249  31.7182779   3.1301463  81.7281437  32.4106026   3.5602549
  80.4543114  31.6025424   3.6842066  45.3070211  49.0383005   3.7016660
  45.7714033  49.6792984   3.1634286  45.0768518  48.3363056   3.0930102
   0.7130882  74.6763754  15.0404835   0.6084365  75.3040552  14.3254304
   0.9256991  75.2149153  15.8027196  43.2331181  71.3341093  10.5528629
  42.7479219  70.9562016  11.2863493  43.2304668  72.2759199  10.7237887
  11.9575560  55.1526976  25.3679299  11.5934443  55.7451725  24.7101831
  11.4203203  55.2997828  26.1463737  59.7381163  53.5261154   6.5300560
  60.1338053  54.0429068   7.2318995  59.5529795  52.6776171   6.9325602
  10.5250299  47.7458143   2.5397840  10.3864145  48.6551046   2.2748178
  10.0103331  47.6486826   3.3409601  57.6681614  56.3289785  33.7745428
  58.4778929  56.0708046  34.2148900  56.9713926  56.0092640  34.3477154
  70.2293682  47.0404768   4.0920952  71.0830307  47.1016026   3.6634311
  69.6259594  46.7960119   3.3904058  49.5046663  55.5668449  17.2074592
  48.9159918  55.6935310  16.4633882  50.3417969  55.9269428  16.9145870
  59.2956209  51.1119890   7.9114294  58.6559486  50.8632565   8.5786474
  60.1278496  50.7702541   8.2382989  76.3793182  67.8163052  22.9991698
  75.9173107  67.1548128  22.4841833  76.5881634  68.5068130  22.3700356
  73.4812593  42.7181292   6.7995191  73.7005329  43.2632637   7.5551510
  74.0362406  43.0515814   6.0945082  55.2332878  49.3522406  11.1773765
  54.7887802  49.0626431  11.9741058  54.7036552  48.9953279  10.4644012
  63.7040615  51.3714314  26.7839646  64.0529728  50.8956957  27.5377345
  62.7662802  51.1797905  26.7929506  61.7708492   8.0500287  46.2462997
  62.5223017   8.4081775  45.7737732  61.0092115   8.4286976  45.8072662
  58.5550165  75.1670456  26.9903922  57.6630402  74.9217176  26.7445683
  58.7882328  75.8659172  26.3793135   0.2513908  75.3473520   4.2462778
   0.7221794  76.1752796   4.3418050  -0.6461377  75.6050777   4.0359193
  45.4900169  30.0556922  19.6130919  44.9928999  30.8356929  19.8594749
  45.5375385  30.0937963  18.6578321   5.3963661  43.1244469  13.2941675
   5.9188104  42.3694563  13.5648680   4.5323715  42.9666948  13.6747730
  71.9653511  53.1416607  28.3451247  71.2188578  53.5281992  27.8873396
  72.7315235  53.4757185  27.8786278  42.6323700  48.6518717  19.0076613
  41.9051409  48.0313540  18.9593935  43.1517839  48.4735870  18.2236624
  27.2776890  65.2526093  53.6801529  27.7198625  65.6796122  52.9464102
  26.6311622  65.8934927  53.9759588  42.2768927   2.9439759   2.2118196
  42.2315502   3.4868020   1.4247262  43.0943489   3.2049254   2.6359719
  80.6834507  34.1646934  28.4713697  81.3659000  34.5767403  29.0011907
  81.1624527  33.6457705  27.8252268  43.4748077  46.5317059  12.3329639
  43.7944794  46.4161253  11.4381540  42.7839994  47.1899605  12.2573578
  73.7658405  55.9872150  30.8526993  73.6064911  56.5273237  30.0786662
  74.7195148  55.9454250  30.9233928  78.4238100  46.5370083  16.5863919
  78.6761618  47.2660208  16.0197449  78.8744688  45.7783031  16.2155783
  67.1312094  47.7395773  18.5550582  67.6718044  48.0256462  19.2913675
  67.2342682  48.4297562  17.8998780  67.7232218  41.0313082  20.4909134
  67.3892879  40.9904575  19.5947826  68.3773518  41.7298508  20.4711509
   7.1984416  46.4268637  39.9361587   8.1406438  46.5683365  40.0282001
   7.0152241  46.6241598  39.0176058  53.6789370  66.8155384   3.3888149
  53.5882616  66.6901731   4.3334281  53.7948847  65.9317493   3.0399519
  64.7996664  66.5088797  31.8226719  64.9224091  67.2943592  32.3557639
  64.7360229  65.7957649  32.4580026  54.6179676  63.5804510  17.4993384
  54.6910477  63.3918571  16.5637505  55.4039860  64.0870762  17.7036536
   4.9924529  32.2423625  15.1640022   4.6314859  32.0697761  14.2944336
   5.1461959  33.1870556  15.1763356  50.6330967  58.5228443  14.8740172
  50.9994411  59.3583298  14.5842266  50.7451725  58.5290098  15.8246136
  57.0910501  54.2841244  12.4926317  57.5875187  54.2884302  13.3110058
  56.3128233  53.7619400  12.6873493   2.2498095  52.8060913  26.4968109
   1.4257956  52.6262283  26.0441709   1.9981752  53.3435869  27.2478175
  43.1043291  54.9852276   3.6758700  42.6451397  55.6540775   4.1838300
  43.3366919  54.3143892   4.3179053  10.1877570  56.2003422  39.9976778
  10.4734170  57.1025229  40.1415730  10.8464909  55.8314991  39.4092441
  26.5409851  18.8590372  62.8967237  25.7761383  18.2835984  62.9073477
  26.6931224  19.0722287  63.8173962  42.7209949  59.6387815  20.2541637
  42.2343588  59.2632818  19.5203912  42.0486546  59.8644161  20.8970308
  57.7218819  49.1218710  20.2246380  57.2358990  48.9224148  19.4244695
  57.1959782  49.7901821  20.6639743   8.2204270  29.2976141  23.8426137
   9.1379315  29.4308496  24.0806580   8.2503635  28.6876798  23.1055117
  77.9551268  55.3136015  28.6686540  77.6294041  54.4212103  28.5512924
  77.3234367  55.8622265  28.2036662  70.4779100  50.7127333  29.0188289
  70.8547449  51.5778732  28.8583207  69.7227764  50.8812141  29.5824051
  53.9457369  55.9928036  19.9245358  54.4921732  55.5322123  20.5613208
  54.5030308  56.6987085  19.5968771  74.7382307  14.5172167  39.8601627
  75.3609943  14.5766485  40.5846405  75.2798939  14.5767605  39.0732145
  57.6018333  24.5446610  14.7842395  58.4971380  24.8517704  14.6416032
  57.3319960  24.9642301  15.6011736  79.7586918  36.7947650  13.0221415
  80.6464672  37.0854235  13.2309651  79.4058323  36.4845872  13.8561141
  69.6550989  66.0927916   6.9693393  70.5286312  66.1075687   6.5782487
  69.3909693  67.0123053   7.0003444  67.0628405  57.6961279  30.7057095
  66.5704107  57.3975563  31.4702988  67.7649260  58.2359838  31.0688448
  66.2084293  73.1333494  27.9917812  66.8893623  72.5490427  27.6583910
  65.7151175  72.5967932  28.6122513  39.2198157  55.1071787  17.0484972
  39.0764666  55.7301617  16.3360512  38.6012483  54.3977451  16.8744040
  62.3192787  48.8250542  21.7939878  63.2113171  49.0046549  21.4969301
  61.8305111  49.6192694  21.5782189  57.9268456  67.7053928  14.5364809
  58.1865644  67.8355646  13.6244309  58.4926510  66.9990253  14.8481548
  75.7076120  42.1528721  28.5343528  75.2326155  42.6403618  27.8613281
  75.9874725  41.3495064  28.0955839  71.6131783  41.2779522  16.4121497
  71.3292789  40.6978083  15.7057011  72.2378016  41.8728113  15.9971547
  37.3905182  32.7810931  66.0283804  38.0971098  32.7291775  65.3847456
  37.7613258  33.2879329  66.7507744  73.6338425  42.2186041  14.6505022
  72.9281759  42.2681570  14.0056646  74.3039751  41.6788340  14.2312098
  65.9818792  45.9470558  24.1957951  66.7401743  45.9970236  23.6137938
  65.3868628  46.6235924  23.8725495  70.4818201  50.9791565  16.4403439
  70.8016396  50.9404993  17.3417068  70.8502197  50.2010632  16.0219109
  13.4495986  73.9913797  52.6248980  13.3694661  74.0065098  53.5786152
  13.9172471  74.7987080  52.4109936  75.8199549  53.4977531  40.2118731
  76.0208797  52.5824785  40.4071426  74.8688126  53.5168648  40.1060581
   8.1203365  50.8367491  13.8748598   8.3554059  51.4879322  14.5358706
   8.4082079  51.2212276  13.0468881  81.1828041  64.4478369  39.2962074
  81.2107277  65.3498125  39.6154094  82.0720959  64.1193390  39.4284272
  14.4816780  35.9532690   3.8373616  14.7509038  35.4701066   4.6185800
  13.7929964  36.5423155   4.1455415  74.9657345  43.8245392   4.9500114
  75.1250887  43.6586809   4.0208554  74.4682980  44.6421862   4.9654892
  60.3158712  50.9271431   4.4311568  61.1455441  50.6065989   4.0774277
  60.5602407  51.6783524   4.9717170  75.7273436  60.4413557  26.0350275
  75.7517719  60.7327890  25.1236010  74.8685694  60.0298405  26.1319637
  14.8012614   2.3417826   2.9470250  14.7934532   3.2752463   3.1587237
  15.2223527   2.2943531   2.0887338  65.8312321  44.1955376   7.1656114
  65.5757380  44.9616671   7.6794249  66.7335606  44.3746090   6.9010973
  20.7791328  47.3122358  13.7778699  20.8841062  48.1602144  13.3464253
  21.0002995  47.4805307  14.6938360  65.5337334  35.9697080  10.4081786
  65.9224129  35.1345253  10.1481187  64.7175980  35.7280445  10.8460760
  58.4391832  53.5506535  10.2619839  57.9880571  53.9157820  11.0231674
  57.8032398  52.9512691   9.8714077  78.4771872  60.1567793  33.5099888
  77.5793171  60.3598261  33.7723565  79.0113926  60.4229593  34.2583227
   3.1513608  50.3149366  21.1919856   2.6751527  49.8245001  20.5219650
   4.0661252  50.0608730  21.0699701  51.6991949  19.6268189  53.3246899
  51.4524984  18.7105215  53.4502745  51.2623787  20.0923800  54.0379000
  66.0997295  39.6962190  26.3341618  65.5695486  40.3309393  25.8522177
  66.7453146  39.3904781  25.6970024  75.2304029  74.9403524  50.2607870
  76.1114979  74.5678091  50.2942419  74.6588898  74.1896057  50.0996113
  45.6748486  58.0170488   7.9553157  44.9997759  58.6655712   7.7554911
  45.2907419  57.4763727   8.6455095  66.8347406  57.4571609  22.3431230
  67.3753357  56.7034435  22.5795627  67.4544001  58.1831360  22.2709513
  80.5203056  66.6193199   5.6220573  80.9879303  66.0467482   5.0140107
  80.1023197  66.0208416   6.2412071  13.1091285  33.0403972  31.7713594
  13.0556786  33.9933014  31.6982102  13.7728035  32.7877617  31.1295319
   4.7595051  52.4829054  24.9984741   5.2431422  51.7575932  25.3937626
   4.0006623  52.6040316  25.5691934  60.7922268  48.8529968   8.8575995
  61.4537668  48.2314253   8.5538775  61.2959385  49.5669794   9.2484128
  79.1671324  48.3377600  14.2958736  80.0178242  47.9559040  14.0796828
  79.3621635  49.2491436  14.5139885  62.6851845  57.2677994   5.7150757
  62.8105545  57.2589588   4.7661626  61.8356228  56.8474197   5.8483499
  80.0269222   3.3734298  27.0360231  80.9798336   3.4345776  26.9692445
  79.7735310   4.1378683  27.5533819  65.9164619  47.4687290   0.1444126
  66.0972786  46.5966558  -0.2063364  66.1223412  47.3993683   1.0766328
  55.5066252  54.9847174  24.7676945  55.7238054  54.9795008  25.6999159
  54.9620867  55.7635307  24.6529818  52.6350403  53.8816118  23.3323479
  53.4920311  54.2965364  23.2342196  52.4395609  53.5276413  22.4647522
  54.1231871  57.0093346   5.7557636  53.7541676  56.7039919   4.9270183
  53.3632183  57.2792196   6.2713605  66.3096476  52.6184416  16.1550760
  65.7041740  53.3597994  16.1596012  67.1776628  53.0184364  16.1022747
  79.7106886  46.3780785  21.7753863  80.2850723  46.8010569  22.4136686
  79.4182253  45.5770636  22.2102070  35.5334854  58.2867908   9.3127614
  35.5147481  58.8072872  10.1158571  35.6139779  58.9324474   8.6107087
  70.2148867  47.2504616   1.0389201  69.6167660  47.8004074   0.5329104
  70.9930801  47.7938890   1.1627512  65.7858324  68.5515642  14.0216172
  66.2995148  68.5244322  13.2143819  65.1611900  67.8317881  13.9323330
  70.8454609  42.8253174  18.4832370  71.0571384  43.7447119  18.3215666
  71.0837364  42.3782825  17.6710701  73.5666704  67.0265150  15.0110066
  74.2414284  67.7037001  14.9625504  72.8872776  67.3215389  14.4046867
   2.1058962  59.8221159  10.3126359   1.8034869  59.2090416   9.6426201
   1.9855373  60.6860971   9.9185765   1.5958948  30.3749943  58.1698179
   2.2186954  30.6045270  58.8595009   1.9006084  29.5280600  57.8441048
  72.3070431  40.2360725   7.6491439  72.3911285  41.1773872   7.4971962
  71.4526081  40.0095606   7.2819036  81.4649105  75.7107735  53.4821749
  82.1367168  75.8014011  54.1579676  81.0878944  76.5867710  53.4002447
  69.6460247  37.4121189  33.4684062  69.2423582  36.6573977  33.8969874
  69.0677071  38.1450748  33.6794949   4.9680915   2.9248354  31.0800648
   5.2204978   2.9542470  32.0029187   5.2412468   2.0563170  30.7846093
  16.3774610  74.4351196   5.7285851  16.1478996  74.3650103   4.8019689
  15.5454922  74.3298578   6.1900800  24.0948153  20.1676345  21.6885781
  23.9247489  20.0058722  20.7606006  24.9706459  19.8111939  21.8372560
  57.0244646  57.8007078  31.8057561  57.7390432  57.7389526  31.1718869
  57.2804403  57.2094059  32.5136185   8.0259055  26.2304449   2.6221749
   7.2276598  26.7539096   2.6930353   7.7562481  25.4459095   2.1446593
  71.0130167  75.1548100  17.5763345  70.9700680  74.9057150  16.6531122
  70.6209469  74.4162273  18.0421758   8.8624334  64.6144533  45.4768419
   9.7911340  64.7998238  45.6160736   8.7398511  63.7309456  45.8241463
  47.3059464  36.6983223  10.1589310  47.8064919  36.6273379   9.3461269
  46.3918447  36.7223263   9.8759693  48.3608246  21.6575742  66.4218426
  48.4378195  22.5907993  66.2233639  47.4597120  21.4362621  66.1867857
  -0.0160245   6.8659347   7.2303891  -0.3457288   6.6405272   6.3604951
   0.4326793   6.0748482   7.5288606   1.3932057  74.9165487  26.9958472
   0.8108041  74.7353125  27.7335405   0.8242355  74.8802710  26.2269592
   0.2416427  36.6961145  24.0316892  -0.1339920  37.5632739  23.8794827
   1.1203405  36.7463160  23.6553884  45.4546976  32.2690272  66.9427347
  45.4928207  33.0407858  66.3777828  46.3622189  32.1223521  67.2094154
  10.5607414  43.5553885  17.0903063   9.7944713  43.7389708  17.6337755
  10.2159131  43.5067272  16.1987031   4.8756722  67.3165846  14.0865445
   4.7113711  66.8602610  13.2613122   5.6751955  66.9152927  14.4270742
   1.7391132  46.2468386  11.7472327   2.4471684  45.9570169  12.3224664
   2.1835314  46.5599060  10.9593785  19.6619642  67.6745367  23.0336118
  20.1982522  67.7668238  22.2461414  19.7083938  68.5318375  23.4568334
  71.6820049  63.5960722  30.5036259  72.6313972  63.6058474  30.6252241
  71.4899921  64.4175482  30.0513673  65.9588861  74.4880199  34.1738629
  65.1116085  74.7045994  33.7847018  65.7562637  73.8279200  34.8367667
  78.9623260  68.9174271  14.2515457  78.4814930  68.2223320  13.8022411
  79.4956064  68.4587288  14.9007320  73.8360882  73.9799166  19.6525383
  74.6695185  74.1732550  19.2232990  73.2275057  74.6273518  19.2966092
  32.3786974  75.7550764   3.8342083  32.0566821  75.4959059   4.6975565
  31.6560054  76.2494612   3.4475169  42.7092695   3.2992932  10.6065261
  41.8799400   3.5051611  10.1751828  42.9106522   4.0794969  11.1232078
  59.3008184  23.2292175   0.6421433  58.7028027  22.5265455   0.8968231
  60.1528931  22.8007793   0.5606380  74.8510027  50.1665878  61.8120718
  73.9375210  49.9547815  61.6199207  74.8358011  50.5010319  62.7088165
  75.3008413  37.8441811  53.9820528  75.7098484  38.3825827  53.3045053
  75.8386707  37.0531178  54.0164804  53.1834459  48.2406712  57.9602528
  53.0506134  48.5637712  57.0690775  52.3048449  48.0173016  58.2674837
  81.4701557  31.9012070  22.4664974  82.0539665  32.6328135  22.6668406
  82.0569801  31.1897373  22.2102189  35.5766940  67.9583120  30.4512668
  36.1828232  68.6981630  30.4894376  35.8268881  67.4843788  29.6581578
  58.3107901  53.6762810  57.7003765  57.6435471  53.9361000  57.0651531
  58.0394077  52.8052807  57.9900980   1.2757273  28.3205652  16.5113270
   1.1499450  27.5031638  16.0293853   0.4456121  28.4600878  16.9670391
  46.8023825  12.0123184  26.3488460  46.2281609  11.5603960  26.9671226
  46.6662407  12.9420745  26.5311933  44.1131687  28.5084653   6.5888554
  44.4629860  28.4010482   5.7043660  44.8622513  28.7992358   7.1090078
  78.1902218  39.6384048  59.8711920  77.9242468  39.7909617  60.7779503
  78.6218596  38.7842298  59.8886728  48.4371662   8.4430140  21.1583567
  48.0969858   8.5872799  22.0413613  49.3260717   8.1151748  21.2947369
  55.2687550   3.2926780  11.0013080  55.4509592   4.1513890  10.6196666
  56.1325979   2.9274961  11.1927629  65.4300022  14.5009148  10.1258647
  65.7628679  13.7851167   9.5845115  66.1007023  15.1809120  10.0626433
  60.3554344  14.9313009  38.0794358  60.9131241  15.4216933  37.4755096
  59.5298719  14.8215628  37.6075864  45.5271387   4.6394986  12.0868099
  45.8051205   5.3938639  12.6063228  44.8463821   4.9843660  11.5089965
  22.3519540  74.0280437  17.0805597  22.4741864  74.8842430  17.4906981
  21.9775581  73.4824228  17.7721918  39.3730640   4.9545497  16.1218822
  38.8900089   5.3028935  16.8712473  40.2785063   5.2254003  16.2737000
  13.3830988  18.1728947  56.8407440  12.5110447  18.0660486  57.2206640
  13.2932699  18.9117789  56.2389040  66.0541677  50.6974888  57.1278715
  66.3767099  50.0882339  57.7919579  66.3389015  51.5584707  57.4342394
  80.1147461  57.0924854  48.6003208  79.7918034  56.8758440  47.7256775
  81.0397625  57.3008299  48.4692955  50.7029819  70.8661079   1.5510090
  50.7590055  69.9978065   1.9499357  51.6063118  71.1824322   1.5379609
  46.7685890  13.0285716  23.5435963  47.4322844  13.7118816  23.4496450
  47.1337652  12.4276590  24.1930437  71.1827612  27.8594756  19.2670453
  70.6934595  27.1687984  18.8200724  70.5262423  28.5264063  19.4680858
  74.0825605  46.4395857  50.1894188  73.5458660  47.0864773  50.6473827
  74.9194956  46.8813038  50.0456810  -0.0969611  60.3110504  58.8720179
   0.3630787  59.6070528  58.4148741   0.0871087  61.0939932  58.3530331
  64.7397041  31.3471127   7.6411396  64.1222763  30.7539415   7.2131699
  64.2222214  32.1266890   7.8429002  71.2254858  27.0071936  14.3603599
  70.3397751  27.3510337  14.2440712  71.5766287  27.4965596  15.1043034
  73.1034565  49.5239782  47.8244400  73.1590748  49.0346766  48.6452484
  72.9639149  50.4313374  48.0954742  45.9423447  15.0756943   6.8456995
  45.7127476  16.0036623   6.7967671  45.2272415  14.6278751   6.3936824
  26.8198276  62.5046396  50.8966303  26.8785024  62.2441912  51.8158436
  25.9092021  62.7765608  50.7823944  75.5456209  57.5146437  51.5391636
  75.3030539  56.7652416  50.9953022  75.1955175  57.3054409  52.4051285
  40.3578997  27.4742174  15.0849533  39.9328709  27.6860166  15.9160495
  40.8037090  28.2823443  14.8311424  72.4551582  38.0270004   0.5775644
  72.0410109  37.3845196   1.1536983  73.1311989  37.5325370   0.1141944
  62.0618296  25.2599001  21.6764474  62.2310543  25.4848003  20.7615638
  61.5457201  25.9929848  22.0117831  46.4915609  72.8313494   5.9019417
  47.4398994  72.8317118   5.7719886  46.1349678  73.1281519   5.0646955
  10.8873904  47.9822779  64.9124670  10.5272770  48.8572931  65.0570345
  11.8361545  48.1079960  64.9290514  64.9544573  31.4688516  24.0864730
  65.8434820  31.1260295  24.1777897  64.5078993  31.1927533  24.8868418
  64.0590858  40.5053663   5.4268432  63.6992979  40.1779747   6.2512207
  64.0128231  41.4580870   5.5069137  46.8641901  14.7226346   3.5940424
  47.2284317  14.5516956   4.4625691  47.0442390  15.6495380   3.4369972
  57.4048471  33.2206678  16.6744614  58.2571936  33.4225583  17.0604360
  57.6087952  32.9115224  15.7918131   5.4704988  71.1044502  58.6147642
   5.2455145  70.6041384  57.8303528   6.3538158  70.8124256  58.8399410
   4.1523153  65.8264828  48.9975405   3.5311928  65.2911615  48.5037041
   4.9170703  65.8947182  48.4259415  61.6491938  65.6086683  64.8210192
  62.4729490  65.9612989  65.1576424  61.4723444  66.1233521  64.0335798
  17.1191239  68.4672928  62.9751062  16.4846981  69.1720819  63.1055069
  16.5839624  67.6889277  62.8202391  46.4503479   8.9462256  10.6735921
  45.9842825   8.3530957  11.2628400  47.3672771   8.8761419  10.9392166
  54.8271084   7.5976878  12.2916257  55.3218555   6.8644369  12.6574099
  53.9107227   7.3347396  12.3772299  56.2148237  15.5954266  14.2716825
  56.8575191  15.9821725  13.6770332  55.3817654  15.9897482  14.0133154
  25.7796216  12.5082350  30.6032181  25.3879929  11.6432500  30.4821467
  26.6624188  12.3283327  30.9265399  80.2373695  60.8539963  67.0961857
  80.2517796  61.4709234  66.3644552  80.0634480  60.0048208  66.6901255
  45.5188847  17.8141725  13.1172192  45.0560570  18.5860026  13.4432542
  45.8697510  18.0858028  12.2690785  54.9809361  17.2353721  10.7013905
  54.2226696  16.7630327  10.3576422  54.6970654  17.5524962  11.5587592
  32.9957652  12.3940086  16.1845672  33.2414985  12.4719691  17.1063960
  32.5899744  13.2347095  15.9729373  58.2889748  12.0234430  20.3010869
  58.4813261  12.1816838  19.3768620  57.8939295  12.8399920  20.6067324
  45.0882673  51.0930872  14.4017458  45.3200340  50.2462292  14.7829950
  45.3880358  51.7354298  15.0449932  73.1385374  42.1912622  63.1381273
  72.3461390  42.5089645  62.7052307  73.5555315  42.9805279  63.4836864
  62.9230738  13.8629985   7.2796005  62.3883820  13.1730890   7.6724887
  63.2630348  14.3567812   8.0258149  47.0076847  38.2553768   2.3098505
  46.1726427  38.5246468   2.6925138  47.0066071  37.3007607   2.3801196
  35.4969501  11.1832678   9.7194541  35.2483153  10.8207655  10.5697513
  35.3398991  12.1236312   9.8048073  79.4875002  65.4038858  51.4466238
  79.1774654  64.6562767  50.9355545  78.8031721  66.0651016  51.3431072
  55.5539274  32.3088408  22.0135546  56.2027836  31.8249965  21.5025663
  55.1687622  32.9246044  21.3900805  59.8053789   9.2254496  19.4002295
  59.7576809   9.9442840  18.7699640  59.6348429   9.6377218  20.2470946
   9.9388373  31.6280746   8.2816082   9.9852419  31.0213470   7.5427181
   9.0874088  32.0552444   8.1876498  45.4692841  66.9465828  32.1001124
  45.1365614  67.0942497  31.2148309  44.7036648  66.6624498  32.5994372
  52.5713348  36.1451268   6.5779752  52.2074509  36.0413647   7.4572116
  52.6868582  37.0899010   6.4765328  26.9464207  33.2716370  11.2714374
  26.0396743  33.4393024  11.5282094  26.8768978  32.7054739  10.5027640
  81.0350323   7.2322178  22.6391006  81.3683891   8.0599743  22.9853988
  81.2136555   6.5942705  23.3300042  16.4997053  57.9797792  45.7630491
  17.3976672  58.2507372  45.5720520  16.5699208  57.0483303  45.9721136
   1.4180660  48.2818270  47.6142645   1.3038380  48.8576746  46.8582344
   0.5399170  47.9463530  47.7946663  44.0416145  17.5964069   4.7770813
  44.5427942  17.4547935   3.9739639  43.1925678  17.1895289   4.6044496
  75.9142256  38.6803794  33.3381701  75.2271605  38.3472347  32.7609444
  76.4198256  39.2787910  32.7881646  60.8910322  71.8359423  59.2440605
  60.0571585  71.5400267  58.8789368  61.0661125  71.2294674  59.9636221
  80.0619507  72.3450089  64.3901873  79.9845552  73.2974339  64.3342400
  80.9134007  72.1504736  63.9985132  66.9983149  51.4107895  49.6906233
  67.0036697  50.8037186  50.4306698  66.5139627  50.9494781  49.0059137
  10.9631586  54.5091009  55.6288338  11.1194217  55.2327394  55.0220776
  11.2579143  53.7313652  55.1550388  60.4186440  30.3087759  65.9442806
  59.8830748  30.0333452  65.2002811  59.7862482  30.4995036  66.6370487
  24.0100694   3.1219912  53.3903503  23.5356116   3.5888931  52.7025080
  23.3261919   2.6900303  53.9021635  21.5852690  75.7433844  56.6236687
  22.0783114  75.3316975  57.3333549  20.6940389  75.4095602  56.7261362
  48.9471531  20.1084757  12.0663381  49.0266466  20.3065419  11.1332345
  49.2810249  19.2153871  12.1509075  41.3374090  17.1629357  18.3189666
  41.3726330  18.0919540  18.5468173  41.9062710  16.7372715  18.9604008
  -0.2096280  68.8454962  60.4801989  -0.3058021  67.9828501  60.0766754
   0.6318855  69.1682386  60.1578236  26.6895437  16.9582760  59.1477966
  27.5771022  16.9769621  58.7898588  26.1312437  17.2262263  58.4179115
  52.4648905  38.8995194   7.0203328  52.2182655  38.6816096   7.9191780
  51.7345238  39.4239140   6.6920030  49.5085859  22.7774119  13.0677760
  49.4988632  21.8638062  12.7823639  50.3232622  23.1311798  12.7108717
  72.6559210  67.8323221  65.2502680  72.7229309  68.4625530  64.5329475
  72.7642441  66.9790220  64.8302889  70.2046108  76.6477966  41.0866928
  70.9855843  76.0977650  41.1481428  70.0644207  76.7605305  40.1465511
  28.1152177  34.1944146  17.5509238  27.8754115  34.4458199  16.6590047
  28.0654144  35.0090837  18.0509889  45.0138330   8.5239577   8.2949072
  45.5135584   7.8034860   7.9109436  45.5320168   8.7983775   9.0514857
  43.4261513  20.8185792  19.7217703  43.8010454  20.6946659  18.8498008
  42.5359011  20.4741096  19.6508896  67.1668386  38.3276820  59.3737936
  66.9354439  39.2551208  59.3233728  66.6338301  37.9106951  58.6968470
  64.0862560  73.6476088  54.8276043  64.0255308  74.3789101  55.4422140
  63.2399988  73.6397123  54.3803740  69.7982216  25.5382013  17.9495990
  70.1619816  24.7596645  17.5279450  69.2464161  25.1943731  18.6521113
  47.7110767  31.7462039   6.8298090  48.6308432  31.4896774   6.8965274
  47.7258253  32.7025557   6.8673080  20.5557775  68.4744787  53.3373308
  21.0624051  68.2780647  52.5493097  21.0344076  69.1887856  53.7579393
  49.6856117  17.3366714   6.7351156  50.1016283  17.3094153   7.5967532
  50.0502586  16.5842319   6.2691784   9.0455896  70.2516317  61.6661596
   9.0869790  70.1924896  62.6206350   9.9430144  70.4508686  61.3993931
  75.4105425  18.7067425  12.6388741  76.0805225  18.5419059  11.9754052
  75.9047031  18.9190328  13.4306884  61.6989136  42.4049616  62.6092243
  61.0451269  43.0257225  62.2875834  61.8191051  42.6390743  63.5295343
   5.9133369  66.7102242  38.2510757   4.9596801  66.7730522  38.1979394
   6.2303299  67.4957085  37.8052521  59.4639826  28.5123467  14.1049659
  59.3218660  29.2534494  13.5160673  60.1310444  28.8189721  14.7191644
  52.8828144  17.0385635  29.2211604  52.8829622  17.1887183  28.2758117
  51.9577026  16.9459569  29.4488168  69.6802235  54.6533823  65.1447582
  69.9535751  54.0007782  65.7894421  69.2062569  55.3101301  65.6549263
  77.5785398  68.1238651  61.7321873  78.0598402  68.7174177  61.1557531
  77.2742081  68.6804962  62.4489689  79.8890972  75.3093624  65.6081390
  79.2755222  76.0121059  65.3938866  80.7266521  75.6058264  65.2519941
  60.8510876  50.2768040  60.5946827  60.3038692  50.6882238  61.2636518
  60.8794165  50.9155321  59.8823261  77.0713568  47.3708153  45.2170658
  76.7777729  48.2493258  44.9756765  76.8072367  46.8192530  44.4806910
  55.1743364  47.6271534  17.0070565  55.3908968  46.8059111  17.4485242
  54.2785406  47.5017643  16.6939211  76.7802095   3.2278344   7.5976646
  76.3516331   2.3833209   7.7367681  76.9156313   3.5757574   8.4790510
  52.1511984  21.9727349   3.1274170  52.4508476  22.0509315   2.2216985
  51.2712669  21.6025186   3.0574599  75.4335213  20.8677578  28.1987214
  76.0446835  20.5834556  28.8783455  74.5675611  20.6894565  28.5655260
   5.8847225  39.1174340  52.1269560   6.0518813  39.2405105  53.0613804
   6.7393273  39.2375898  51.7128992  53.3132792  22.4694586   6.8019789
  54.2207146  22.5250673   6.5024763  53.1406736  21.5304184   6.8701303
  54.6156597  32.8925705  13.9140987  53.8012123  32.6042628  13.5020471
  55.2667427  32.8494334  13.2137656  77.4377537   9.2705679  32.1944809
  77.3095369   8.4501487  31.7183471  78.2686949   9.6119547  31.8639874
   4.4428438  66.2053061  55.8316851   4.7971711  66.7952871  55.1663971
   5.1832050  65.6515121  56.0794926  36.9597960  74.1566515  19.5002639
  36.1711049  73.7952471  19.9047232  37.6310778  73.4902477  19.6469617
  75.4773235  17.8937519  66.3682270  74.7575665  17.2635198  66.3367701
  75.7499933  17.9003286  67.2857428  73.8149500  16.8938172  28.2450032
  74.4811058  16.8264461  27.5609469  73.1715012  16.2219143  28.0197167
  58.7946653  12.6489365  17.9303944  58.6143923  13.2431984  17.2019804
  59.0488195  11.8266857  17.5114179  47.2291279  17.5082433   3.5513109
  47.6586771  18.3456624   3.7258083  47.1592999  17.4690485   2.5974661
  49.5885468  17.0044911  23.3351660  50.1052380  17.6066017  22.7996969
  49.1876030  16.4066780  22.7042174  34.4193864  30.8169603  24.8461604
  34.6207595  29.9102974  24.6145582  33.4674811  30.8330560  24.9453807
  81.8406938  49.0841913  52.5020456  82.3046792  48.7851286  53.2840395
  81.5503136  48.2791567  52.0732927  68.8588524  57.5490952  55.5699587
  69.6974897  58.0058956  55.6351614  68.2047892  58.2201052  55.7653570
   8.8576382  67.1733999  59.9105406   9.3370277  67.9281950  60.2521563
   8.5136902  66.7356873  60.6892204  32.4080181  28.8671827   6.1385876
  32.9380155  29.6579266   6.0382998  31.7419767  28.9369273   5.4546589
  30.3910875  19.8329306  15.0805807  30.2097082  19.2260528  15.7982373
  29.6077847  20.3803754  15.0260925  60.3152609  28.0169725  19.6144795
  60.0385857  28.1542087  20.5204844  59.5140076  28.1202269  19.1011024
  22.9677892   1.6677324  61.7479420  22.2560811   2.2328793  61.4474201
  23.7644339   2.1601765  61.5502357  38.6626673  16.6557264   2.2519097
  37.9350090  16.9729424   2.7868131  38.2429147  16.1928213   1.5268168
  78.1373024   4.7880757  32.0019174  78.2619047   4.8540956  32.9486728
  77.6757336   3.9586660  31.8783498   1.8637556  26.5603280  13.6650836
   2.5895309  26.1262298  13.2167089   1.1581579  26.5766287  13.0184782
  48.1489563  33.5699534  10.5088508  47.6680660  32.7612925  10.6850338
  47.8073025  34.1957736  11.1474848   4.2158827  76.5900040  49.3664312
   4.1773155  75.7592297  48.8925600   3.8827321  77.2364378  48.7440395
  60.3035021  27.2387576   3.7583688  59.9477720  26.3898230   3.4956959
  61.2424183  27.0835567   3.8612169  17.8243315  59.5476770  64.8778200
  17.2310472  59.5762348  65.6284380  17.3361754  59.0736532  64.2045927
  63.2429981  42.1566391  15.0962746  63.0415010  43.0908060  15.0417936
  63.6928225  42.0571804  15.9353197  66.9407511  41.4996147   8.2418561
  66.7161274  42.1834278   7.6108468  67.3230839  41.9722271   8.9812416
  50.2971983  33.6943054  14.4731593  50.1216030  32.7906418  14.2108846
  50.0623655  34.2163062  13.7059557  62.8839159  34.3682361  14.4095325
  62.4598598  34.2961264  13.5544240  62.2258043  34.7803617  14.9692452
  50.2385092  28.1058311   1.1031260  49.9752903  28.7327838   1.7768323
  51.1816120  28.0010223   1.2288345  58.0111313  24.1298556  11.4287806
  57.3663807  24.4066119  12.0798814  57.6655388  23.3062768  11.0845149
   0.7521296  70.2772045  48.6589956   0.4617868  70.7283354  47.8662729
   1.2145600  70.9484434  49.1608238  68.9736795  31.6926813  16.4222801
  68.4580898  30.9426093  16.7185771  69.6008921  31.8463063  17.1288443
  13.3030510  56.5458584   0.3823109  12.4791443  56.8366432   0.7732759
  13.0871451  56.3793516  -0.5352355  79.0633869  69.7083330  64.4795465
  79.4022846  70.2005148  65.2272987  79.5694590  70.0285339  63.7328243
  27.5661516  60.0753260  40.3818178  27.5683093  60.4480982  41.2634468
  27.2792554  59.1704893  40.5050659  72.9310274  29.8206115   6.7881376
  72.5386143  30.6641603   6.5630454  72.1889877  29.2707586   7.0396757
  72.9532671  22.1574378   2.0093651  73.2822800  21.2608266   1.9455677
  73.3282328  22.6047087   1.2506932  14.3083024  19.9118900  65.8271790
  14.8064733  20.1420450  66.6114569  14.9736273  19.6664155  65.1842833
  68.9325571  36.5632176  16.1894155  69.1665030  37.4870872  16.2786734
  68.1348372  36.4668107  16.7095852  72.5622416  33.4532881  14.3262649
  71.7109013  33.8634849  14.1739929  72.8571320  33.8164163  15.1613772
  78.8688374  52.2346735  32.0472217  79.2693996  53.0145073  31.6629767
  77.9469347  52.2903252  31.7957664  33.5694313   4.9264202  64.1236162
  33.4950924   4.0721229  64.5489168  34.4916701   4.9910346  63.8755512
  27.6039886  33.8386321   7.8428942  26.8486571  33.9184809   7.2603738
  27.6170659  32.9147387   8.0928600  28.8017893   3.9505440  63.6764717
  28.6776590   4.1057268  62.7401257  28.1691003   3.2652336  63.8916159
  54.4915342   5.0152028  21.3022852  54.8018122   4.2857400  21.8387938
  54.5630074   4.6978012  20.4020739  52.9508591  33.2536221   7.4457181
  52.4822950  33.8683963   8.0102795  52.8048658  33.5835981   6.5591335
  25.0882673   2.6912338  60.4834461  25.0106478   2.5999498  59.5337725
  25.9931612   2.9698190  60.6241179  59.4077873  23.0030060  19.0511084
  59.4031382  22.0834613  18.7853050  59.9969387  23.4292674  18.4286678
  81.3963413  36.4081049  21.0970140  81.2444019  35.9891462  21.9441390
  80.9694672  37.2615695  21.1719084   3.8945913   5.6086612  16.3320124
   3.7852988   5.5185550  15.3853500   3.0137956   5.4893100  16.6872382
  56.6969195  34.5528833   0.3148594  55.7766806  34.3351166   0.4630842
  56.7029804  35.0062601  -0.5281363   3.2636154  25.3467298   9.1247296
   2.3844731  25.0828958   9.3962651   3.8264820  25.0928903   9.8561513
   0.1178849  41.6725349   4.6293670   0.3632134  42.2252941   5.3713280
   0.8270782  41.7911243   3.9975333  18.0239081  67.5587082  60.0076818
  18.9531720  67.3297596  59.9908781  17.8792214  67.9082775  60.8869457
   1.0324643  53.6156368   5.9773982   0.3581823  52.9364538   5.9604621
   0.6734873  54.3229389   5.4415888  43.1792927   3.8702661  57.5965071
  43.6150408   4.1799331  58.3905220  43.6541796   3.0742532  57.3576021
  41.0613632  17.9635739  59.2312145  40.2135277  17.8512132  59.6610832
  41.6632843  17.4242377  59.7440910  76.2289143  68.3015585  58.3426762
  77.0009804  68.8405943  58.5146809  76.5188313  67.6714897  57.6829815
  48.9025688  35.2327204  12.7247870  49.5849180  35.3515768  12.0640993
  48.7581396  36.1096048  13.0803764  13.9210916   2.6379958  66.1283255
  12.9995883   2.8968033  66.1373568  13.9115989   1.7288026  65.8291435
  23.8394380  24.1374731  43.9423800  24.6557283  24.5991588  43.7506819
  23.5371351  23.8218069  43.0907917  48.0414295  49.7774506  23.6592293
  47.7652597  49.3183708  24.4524527  48.8321114  50.2502251  23.9191103
  78.3199692  55.8337116  16.4195108  79.1268158  55.3187132  16.4175630
  78.4756279  56.5202999  17.0680451  76.9114399  41.3797379  24.6143246
  77.8461170  41.1736488  24.6027970  76.5396547  40.7703352  25.2520084
  55.8351374   2.6942441  64.0475559  56.2390375   2.1821664  63.3469343
  56.5284920   2.7969390  64.6994352  67.9320478  41.4404249   0.6025689
  68.1386948  40.5607891   0.9184369  68.1375504  42.0143366   1.3405564
  67.5393343  11.9317102   2.0302790  67.0012283  11.1411011   2.0703934
  68.3698654  11.6768014   2.4321112  52.5613070  22.0480394  12.2510278
  52.8245497  21.5263414  13.0091619  53.3685970  22.1680689  11.7509151
  34.1206694   8.8278103  49.6562338  34.7314835   9.2806280  49.0747738
  34.6524906   8.1599581  50.0890970  75.2570868   0.9773103   6.5810299
  74.5698833   1.6277534   6.7256182  75.0081635   0.5432413   5.7650316
  35.6658435   0.7020681  61.0891581  36.4005852   0.0889583  61.1111546
  35.8904696   1.3202354  60.3937101  47.7683496  42.5057697  17.8662503
  47.7059031  41.8330383  18.5443079  48.6645126  42.8346014  17.9369187
  73.0494642  74.1419792  65.2930927  73.7646389  74.5056248  64.7710562
  72.4120712  73.8376713  64.6470594  60.5467224  45.4788685   3.4675956
  60.8379555  44.6364021   3.1187952  61.1032486  45.6268215   4.2322016
  14.2942739  40.5508900   4.7507793  14.4844902  40.1266384   3.9140835
  14.2345834  39.8294473   5.3770292  53.6264706  55.4220676  10.4490232
  53.3848095  54.5099878  10.6100810  52.9784441  55.9311199  10.9360123
  52.7557659  38.9013648  16.2551260  52.7320671  37.9768729  16.5020800
  52.4007082  38.9210606  15.3664327  46.1907148  24.0969133   3.4322819
  46.5276146  24.5360351   2.6513204  46.8957376  24.1766024   4.0747947
  35.0875568  35.0771642  21.7371559  34.4513559  35.0900483  21.0220933
  35.6846714  34.3632102  21.5136480  11.4349473  47.7744246   7.3870111
  10.4896283  47.6366806   7.4472570  11.7411947  47.7333307   8.2929671
  56.3999891  20.8518291  18.4298503  56.2010431  21.7864776  18.3742750
  56.2975121  20.6398940  19.3576503  69.5854855  67.0124006  64.9599314
  68.8571453  67.3955202  64.4710875  70.3309917  67.0685625  64.3621826
  20.1026940  68.1031179  46.8123388  20.4535913  68.9122915  46.4404011
  19.5213997  67.7599287  46.1336994  70.3991985  44.5720720   0.7469899
  69.7084999  44.1495752   1.2575385  70.2530146  45.5092430   0.8757156
  50.7447910  10.4885709  18.5919452  49.8450613  10.4780495  18.9184427
  50.8948565   9.5980632  18.2745993  77.5306082  74.3610144  51.2926912
  78.2309914  73.7824583  51.5943050  77.9836130  75.1484728  50.9911585
  60.3567553  55.9525251   5.2938807  60.2359009  55.7148027   4.3745795
  59.9583387  55.2319336   5.7819808  70.4961061  43.9498520  32.0265627
  71.3891554  44.2475414  31.8531466  70.4943991  43.0302000  31.7611051
  68.9980555   6.1387563  23.8877702  68.4585524   6.6501594  24.4907928
  68.4142351   5.4504532  23.5689855  65.5305433  43.7461281  27.0247316
  64.5835209  43.6941004  26.8955779  65.7607889  42.9176569  27.4452662
  68.8078880  57.4018860   8.7208915  68.3411551  58.1866169   9.0082812
  68.6416578  56.7585373   9.4098800  70.8468962  30.7774734  14.1697085
  70.2746820  30.0190902  14.0528369  71.7168427  30.4608750  13.9264214
  40.4816866  47.3054218   7.6911598  39.9282241  47.4502516   6.9237411
  40.3213978  46.3933516   7.9333794  61.8750381  43.0764866   2.8240675
  62.6790285  42.9002571   3.3127192  61.6790676  42.2515678   2.3798370
  66.1290979  63.3157921  50.9704018  66.2648106  64.2053890  51.2966394
  66.2415695  63.3884954  50.0226164  67.0268536   5.4552382  29.7825193
  67.8096724   4.9620536  29.5371747  66.9709873   5.3584927  30.7331777
   3.2010585  48.8055563  24.8803592   2.8935248  47.9018211  24.8102713
   2.7380908  49.1578341  25.6404877  47.1344995   6.6042227   7.1491897
  48.0749321   6.4602816   7.2545350  46.7281675   5.8364171   7.5511879
  61.0498142  36.3042641  12.1584880  60.6215763  35.5273175  12.5179327
  60.8949089  36.9868112  12.8114545  54.8515892  24.0836620   9.9474865
  54.5811367  24.9090195   9.5451504  54.8674154  24.2688060  10.8864772
  61.4035082  24.0586686  17.2826469  62.1381330  24.4397807  16.8016970
  61.4950609  23.1149459  17.1513438  61.7046070  30.4118657  12.5619161
  61.3299847  29.5460629  12.3998189  62.3085737  30.2785611  13.2924545
  75.1358366  47.1552229  36.2459779  75.4137421  46.4151430  36.7856860
  74.1803122  47.0993948  36.2366486  73.1005287  39.3384385   2.9528046
  73.9607239  39.7434473   2.8420347  73.0035782  38.7694430   2.1892104
  67.4882793  57.7524137   4.8942617  67.5978231  57.1491289   5.6293017
  67.3954344  58.6131382   5.3026319  41.5884924  35.3701544   8.6639178
  40.8824158  34.7479820   8.4890276  42.3744440  34.8278999   8.7307984
  48.9379406   8.7852764  11.8302917  49.3929482   9.2087936  12.5581884
  48.7474918   7.9026318  12.1479356  81.5973568  42.3405409  13.0569541
  81.6717052  42.7087498  12.1765423  80.7529068  41.8898201  13.0575430
  66.2014771  51.8947268   4.3787697  66.6788292  52.3925209   5.0425214
  66.8410110  51.2653399   4.0454546  11.1956656  72.8234434  60.3527975
  10.3790104  72.8056049  59.8538113  11.3498056  71.9096899  60.5926466
  49.0576887  17.4996150  62.5874710  48.3892632  17.0489836  62.0713568
  49.0772009  17.0266080  63.4194040  69.0638018  10.9942150  23.0091691
  69.1227579  11.2185562  22.0805001  68.4214687  10.2853942  23.0440283
  69.2155123  49.7953320  25.5379915  69.3779850  50.7331419  25.6397033
  68.2892513  49.7367382  25.3038073  34.4689322  14.7456408  53.3329535
  34.9721146  14.4438684  54.0892410  34.7144604  15.6654525  53.2334805
  57.2701025  41.9487000  13.8668299  58.2093954  41.7677164  13.8320947
  57.1923351  42.8636980  13.5967267  59.5457125  53.5412788  17.9603338
  59.9137926  52.6839924  17.7463150  59.0871477  53.4048510  18.7893915
   8.5240912  50.0585461  66.7805243   8.8856912  50.1907063  65.9041595
   9.0061176  50.6732464  67.3337173  74.5824909  49.3728447  15.4934466
  74.9136639  48.5524750  15.8588970  74.7731733  50.0282288  16.1645234
   2.7483127  50.8682823  54.7336292   3.1062546  50.1477289  55.2521992
   2.7154854  50.5269814  53.8399458  39.9647450  44.9777079   0.0770782
  40.9201574  45.0141954   0.0313708  39.7513056  45.3532791   0.9312577
  68.1743050   5.1468700  21.2248445  67.7827787   4.5424011  21.8553662
  67.5177288   5.8342767  21.1125374  28.9928937  23.5481739  11.4987016
  29.5033598  24.1458511  12.0449972  29.1299820  23.8638926  10.6055272
  67.0856783  66.3761290  66.6560133  66.6388438  66.9004543  67.3205834
  67.8289721  66.9151767  66.3855062  78.4171057  34.3556404  30.1062059
  79.2189169  34.2577553  29.5926428  77.8518105  33.6440611  29.8056626
  20.7165909  49.8264074  12.5053227  21.1691523  50.1807451  11.7399061
  20.9769011  50.4013968  13.2249427   9.6902239   1.2058020   2.6611003
   8.9318997   1.5476598   2.1874866   9.9419373   1.9142660   3.2535115
  65.0214815  27.9384708  24.0565586  65.1244450  27.1447492  24.5815706
  65.2221251  28.6531091  24.6609306  79.0353680  45.4881620  29.5489693
  79.3344545  46.2725592  29.0890837  78.1091738  45.4141617  29.3189263
  55.0110912  63.9500952  12.0527065  55.7231474  64.5153618  12.3521698
  55.1422167  63.1285477  12.5261009  55.6331635  32.8642678   6.1119199
  54.7570181  32.8093576   6.4934713  55.7438087  32.0355439   5.6458652
  66.0367680  23.4682894  10.6084883  66.1740255  24.3927622  10.4017544
  66.9037008  23.1470084  10.8563471  71.9853544  49.0604019  14.7578824
  72.1373510  48.1544685  14.4887722  72.8610945  49.4143343  14.9129486
  11.2137437  55.2592325   4.2569175  10.9630811  55.8633852   4.9557745
  12.1333897  55.4609632   4.0843272  -0.0601814  38.0406237  14.3938649
   0.3660678  38.2430434  15.2266741   0.3160864  38.6655641  13.7741029
  34.2519617  64.7600698  59.9571371  34.0664482  65.0469828  59.0629911
  34.1025519  63.8147402  59.9412012   5.3855467  39.9497890  13.7405622
   5.5126685  39.2436051  13.1070197   6.2706840  40.2544022  13.9405012
   2.7262935  50.1905918  37.0680475   2.4031515  50.8814240  37.6464629
   2.2628440  50.3329754  36.2427139   3.5171890  36.4632845   5.0760740
   3.0556485  35.9428549   5.7336193   2.8749281  36.5913844   4.3779892
  72.4187756  59.4610262  13.3140445  71.7368603  59.1875124  12.7005184
  73.0068779  60.0059414  12.7911365   1.2428144  64.0051889  24.5225024
   2.1550789  63.9425611  24.8054934   0.8232823  63.2286596  24.8929477
  51.0774708  29.7136545   8.9809561  51.1434603  30.4374790   8.3580959
  51.6593456  29.9619961   9.6992755  50.9539223  70.2800465  66.7230177
  51.2802792  70.0574541  65.8511353  51.6544819  70.0105381  67.3169994
  45.8831930  14.5592821  52.7751780  45.2545452  14.0587521  53.2952738
  46.6981173  14.5133722  53.2752037  72.8122807  40.9970760  19.8083174
  72.3998976  41.7603970  19.4039476  72.0871830  40.5166912  20.2079320
   6.1546874  72.5756836  64.2331791   6.4491320  72.3773479  63.3442497
   5.2274597  72.7923822  64.1356039  63.4446526  57.3757839  12.2681344
  64.2791986  57.5643682  11.8389487  62.9430199  58.1865692  12.1831417
   7.3976690  35.4803252   8.5967839   7.0480245  36.1595416   9.1735387
   7.7901989  35.9627199   7.8691518  29.8388052   6.6033554  62.2745562
  30.3235102   5.9519464  61.7676449  30.4096222   6.8025512  63.0166626
  76.0056210  44.1967010  13.3595955  76.3090563  43.6247873  14.0646315
  76.5840435  44.9581242  13.4031308  48.4036398  55.9145498   6.5400147
  48.6112547  56.4075470   5.7462364  48.1569529  55.0452089   6.2243885
   8.7140852  48.2279015  13.0509889   9.2194360  47.9028177  13.7960887
   8.3414876  49.0548706  13.3568084  14.2210567  33.8354921  22.9158330
  14.7870660  33.3513260  23.5170388  14.6647584  33.7770414  22.0696974
  66.4306498  42.0282650  14.3912303  65.7559347  41.3875437  14.1665745
  66.9990444  41.5703964  15.0105119  42.8066540  72.7057314  21.8056965
  43.7413263  72.6592064  22.0068479  42.6478434  71.9571114  21.2307382
  75.6689167  65.6148434  17.8870475  76.2337494  65.4623413  18.6446369
  76.0439444  65.0699902  17.1951485  43.8439178   7.8647500  51.0440254
  43.4829378   8.1038338  50.1903439  43.1305027   7.4034983  51.4850664
  79.7845554  60.8035898  38.4296131  80.1927280  60.7419777  39.2932296
  79.1517639  60.0856066  38.4120059  56.4583206  60.8048439  49.3194580
  56.6782999  59.9241638  49.6231747  57.0988941  61.3728237  49.7475815
  31.7125082  13.7531078  53.9864445  32.6357460  13.8469458  53.7518072
  31.6391659  12.8577447  54.3168640  79.2279673  39.6264648  54.0442753
  79.2456675  39.6246672  53.0872440  79.6291018  38.7936687  54.2928123
  23.9295936  66.6628599  27.2100711  24.7917914  66.5840006  26.8018675
  24.1120625  66.7063284  28.1487107  26.0959339  53.5762691  19.8720706
  26.2038136  54.5072985  19.6776938  26.9867468  53.2567739  20.0156164
   8.5264313  17.6873076  56.3585901   7.9136527  18.3541667  56.6684818
   7.9691052  16.9598281  56.0821962  68.2350397  63.7768888  56.1963654
  67.8496027  64.6530485  56.1930799  68.7670898  63.7522650  56.9916964
  21.5116239   1.8486090  32.3333025  21.5909839   2.3138732  31.5005565
  22.0960355   2.3195048  32.9273987  69.9268532  38.5326695  30.2099943
  69.2875576  38.3931375  29.5113778  70.6644964  38.9626265  29.7772765
  42.9866505   8.6772090  39.7649002  43.8932133   8.7247533  40.0684118
  42.4634647   8.8791317  40.5406189  31.1001754  10.1842201  44.0081406
  30.4565525  10.0299454  44.6996450  31.5310812   9.3378621  43.8888502
  60.0879812  34.0347910  18.1002009  60.5360937  34.5770454  17.4510550
  60.6035852  33.2291341  18.1363070  16.4661264  56.7951918  56.1380577
  15.8691072  56.0772324  56.3486099  17.1979713  56.6839123  56.7448950
  74.3894148  76.8457937  52.0005131  73.5620642  76.4264393  52.2368717
  74.7834063  76.2539577  51.3596296  16.4994800   4.6138331  35.0943112
  16.6033494   4.2074198  34.2339206  17.3844218   4.8832271  35.3403544
  13.4197676  33.6372542  44.2605639  12.8319359  33.0586219  44.7462273
  13.6011934  33.1664324  43.4471512  64.9346399   7.8000498   5.7287949
  65.3247452   8.1213713   6.5416944  63.9999390   7.9837483   5.8227074
  25.7924557   1.7525017  50.2246046  26.6284156   2.1641937  50.0057173
  25.8599925   1.5551892  51.1588097  14.4055533  49.0932608  31.4298511
  14.5704770  49.4035149  32.3202300  14.9195254  49.6783304  30.8732939
  40.8948994   4.3594646  50.6130791  40.4520369   5.0764269  50.1591301
  40.4248285   3.5733378  50.3351068  77.3066044  51.0224342  50.3367472
  77.7923679  51.0186338  51.1615181  77.9383039  50.7177544  49.6853209
  59.9078560  34.1955519   3.4834138  59.9203539  34.8433137   2.7788007
  60.3049660  33.4145904   3.0978802   8.0348551  64.4319487  61.1447477
   8.4476739  63.9809799  61.8812513   8.2804990  63.9136553  60.3784180
  62.4434280  10.0941086  14.8835099  62.0673132   9.2636365  15.1752055
  61.8166208  10.7563317  15.1747239  50.4145718   8.3499938  55.5126095
  51.2817383   7.9869181  55.3325224  49.8091412   7.6380444  55.3057098
  54.8151541  65.4133320  39.7527027  55.0550985  65.1553154  38.8627100
  54.0077209  64.9316263  39.9322677  75.4437113  72.2287178  33.5635471
  75.2039003  73.1293774  33.7815690  74.7284460  71.6986132  33.9151335
  16.2212050  52.1019506  49.6478415  16.3353217  51.3138294  49.1167307
  15.2825749  52.2849274  49.6063042  39.7017360  13.6300457  48.9799500
  38.8342714  13.3511651  48.6867571  39.6828389  13.5123992  49.9297047
  75.2067995  76.7806387  64.4330263  74.7624254  76.0048103  64.0911865
  75.5368948  76.5096283  65.2896643  45.3673363  43.0752754   1.1346402
  46.1816788  43.4986687   1.4063434  45.4305029  43.0243540   0.1808855
  30.3125000   0.5295914  47.1443224  29.9272346   0.1395456  46.3596773
  29.5629120   0.7306491  47.7046108   5.3849167  63.9773369  60.6598902
   4.9448252  64.5888329  60.0694418   6.2107980  64.4086361  60.8792782
  47.4228096   3.6611363  32.6119399  47.6308441   4.4942561  32.1890163
  47.6605034   3.7925386  33.5297990  71.5857697  77.0859480  56.1614466
  72.3406887  76.5180826  56.3158989  71.1941576  77.2044277  57.0268011
  48.8748646  34.6689653   0.7750465  49.5486069  34.9698615   1.3847744
  49.3391514  34.0873885   0.1730170   3.7631342  74.9462986  17.9382980
   4.2234254  74.4500208  18.6151075   4.2972723  74.8317337  17.1522927
   2.6221538  49.8439980  52.2601461   2.9516765  48.9954138  51.9642544
   1.6757348  49.7933817  52.1261311  45.6047106   9.3841326  62.8133297
  45.3112841  10.2634132  62.5745916  45.1401234   8.8044608  62.2096968
  65.3852797  22.1822238  16.0992467  66.2662935  21.8971515  16.3416815
  65.4026079  22.2269917  15.1432514  32.6113319  10.3412211  51.5286398
  32.9493356   9.9969500  50.7019186  33.2399940  11.0173213  51.7814302
  37.9781771   8.3481181  52.8628922  37.5470710   7.7045715  53.4252357
  38.9091372   8.2589352  53.0668402  39.0898728  10.3371108  50.6104708
  38.8798189  11.2405884  50.8467674  39.9395370  10.3951836  50.1735115
  68.2204866  44.0222454  30.0918221  68.4135818  43.1123686  29.8658442
  68.3271933  44.5010042  29.2698503  72.8076410  32.1721077  52.6402187
  72.1290493  31.6270566  52.2418976  72.5656843  32.2179985  53.5651922
  11.9805324  31.5580893  60.1059866  11.2991965  32.1633935  59.8133802
  11.9360173  30.8297586  59.4864798  66.1511040   7.6645368   3.4061491
  65.7397175   7.7622664   4.2648941  66.7545843   6.9291162   3.5119721
  16.5037906  24.6998882  19.3775165  15.9520710  25.4819870  19.3900561
  15.8845651  23.9699650  19.3753517   4.6600997  39.6888232  29.8192883
   4.5809835  38.7869430  30.1300669   5.0078559  40.1710272  30.5694747
   1.5041122  26.7573118  45.9100962   2.0112562  27.5326538  45.6695080
   0.8200049  26.7020512  45.2428818  53.8508368  17.4247420   7.6999891
  53.4919405  16.6445458   8.1227398  53.8459301  17.2148228   6.7661035
  78.2609463  45.8578444  59.5079517  77.4018240  45.4364586  59.5318747
  78.6927176  45.4781532  58.7426805   0.5684414  42.7466726  32.1718717
   0.0106346  43.4488964  31.8372536   1.3641402  42.7999926  31.6424847
  66.9501781  70.8526516  44.8120213  66.8305492  71.7964077  44.7060108
  66.9625330  70.5108690  43.9180040  18.1321502  57.7977228  18.6464846
  17.6098895  58.5518742  18.9198518  17.8080440  57.0746374  19.1834486
   4.3285534  41.8764162  64.6001577   5.1267117  41.3544750  64.6823120
   4.5062345  42.6674604  65.1089907  67.3983717  53.7873888  46.4393044
  66.5551710  53.4967279  46.7868090  67.4346113  53.4167671  45.5575132
  13.1614470  53.1463671  58.0516720  13.7564301  52.9850817  58.7839365
  12.5920570  53.8527107  58.3568048   6.3607472  54.4672680  44.7643709
   6.3771647  53.5692787  45.0953865   5.4788291  54.7804928  44.9652290
  14.6570134  47.4463177  22.8352213  14.2369902  46.5899467  22.7549863
  15.4616892  47.2735691  23.3239818  64.5502615  13.4470189  48.5178232
  63.9542150  13.2256687  47.8023052  64.5445633  12.6738882  49.0821552
  11.8882596  60.5079508  55.6510353  11.1620498  61.0865498  55.8835745
  12.6044571  60.7800102  56.2248659   2.3647346  35.9563613  35.3091407
   2.9267123  36.1182594  36.0669017   1.5658063  36.4502525  35.4935789
   5.8440888  28.1535697  55.9906483   5.1763088  28.8183331  55.8221483
   5.9009200  28.1077003  56.9450569  74.3584394  67.4436045  55.6988668
  75.0796747  67.4667835  56.3277721  74.3100119  66.5281200  55.4236031
  76.8230438  43.6554623  40.2661276  77.7356434  43.4560490  40.0572395
  76.8589640  44.5009375  40.7134628   9.5764089  42.4407005  41.7875719
  10.1826847  41.7361021  41.5590954   8.7110132  42.0893812  41.5780544
  16.3900042  71.5833807  38.2464051  16.2082982  70.6711435  38.0204749
  17.1393716  71.8207121  37.7001882  36.0749269  60.1949978  42.2783375
  36.3443422  59.4099474  41.8015385  35.1232123  60.1188803  42.3467302
  80.5730438  57.0465755  37.4461126  81.3450718  57.5439215  37.7160358
  80.7177067  56.8650341  36.5174866   5.1052105  43.7125206  20.3574538
   4.6436968  43.4672165  21.1593676   4.4169229  44.0285301  19.7721076
  80.7289219  65.1382446  62.5714397  79.8737907  64.7232342  62.4584818
  80.5756283  65.8318996  63.2129812  24.5012355  55.0870562  28.3190060
  24.0793705  55.8814240  27.9915309  24.2940879  55.0736523  29.2534280
  74.3962669  51.3803625  43.4590960  74.1059399  52.1774530  43.0157137
  73.6142635  51.0565901  43.9061642   7.8817135  36.9287014  36.2653780
   7.2016221  36.2773633  36.0937214   7.5147331  37.7500510  35.9383583
   5.4704505  50.3622103  26.4352560   4.9152985  49.8609734  25.8379269
   6.3640678  50.1607418  26.1576056  81.3525200  40.4753160  45.1390553
  81.9373512  40.0083590  45.7358456  81.9398212  40.9364986  44.5402098
  78.0479193  44.0808249  22.5458217  78.4382439  43.5504818  23.2405233
  77.1097088  43.9007330  22.6054645  21.5248919  69.7998667  21.5562081
  22.4549699  69.5737267  21.5631318  21.1254430  69.1529799  20.9746456
  71.9777060  41.9382477  25.5233836  71.9416332  42.7867508  25.0818300
  72.6711464  41.4606285  25.0681353   4.8673531  63.2752657  42.3186302
   4.2128879  63.9735937  42.3342180   5.7072341  63.7343168  42.3084927
   1.2994492  65.9781027  35.4313684   0.8657087  65.5595446  36.1749458
   0.6564182  65.9349060  34.7236419   0.7676626  63.6671829  29.6875668
   0.9073035  63.2990456  30.5600405   0.6698605  62.9038525  29.1183639
   3.5312411  58.8398552  27.8221536   2.6105517  58.6700630  28.0214858
   3.6759013  58.4138298  26.9772840  39.6767426  18.1294799  54.8464108
  38.9910412  18.4566879  55.4286337  40.3843260  17.8653264  55.4344463
   8.0939221  66.7369556  40.6950617   8.9180464  66.8639135  40.2250242
   7.4171066  66.9646168  40.0576258  31.5006852  53.0165815  27.4916077
  31.2698984  53.6807823  28.1410766  30.7042480  52.9015255  26.9732642
   4.2283526  51.9219780  40.4976797   4.3764713  52.7122211  41.0171080
   3.5572580  52.1744633  39.8635530  78.7746382  54.5658112  41.8179655
  77.9850435  55.1045847  41.7680502  78.4487104  53.6735106  41.9354391
  81.0421753  68.7613583  57.2859573  81.1118507  69.7081661  57.4081564
  80.4085827  68.6574697  56.5760279  73.6940527  38.6457562  31.6982961
  72.8776836  38.7420297  31.2078857  74.2478943  38.1028843  31.1372423
  78.5956049  44.4273996  32.7402496  79.0677691  43.9906645  32.0313406
  77.7064037  44.0770483  32.6872420   9.8865151  57.7218485  37.4063945
  10.5017483  57.3785830  36.7584062   9.1606063  57.0979357  37.4014926
   5.8974797  45.6318140  15.8237171   5.0359607  45.2777910  15.6030703
   6.2402612  45.0321960  16.4864314   6.8133181  75.0365877  48.2861757
   7.2530776  74.9479771  49.1317463   7.4112177  75.5672216  47.7596998
  74.0028667  31.1030984  50.2670908  74.2495537  31.5373182  51.0836887
  73.1417370  30.7258749  50.4470634  14.0966856  74.7294235   7.3124999
  13.7629521  73.8395119   7.4261075  13.3809936  75.2010393   6.8863606
  13.3589900  71.5507460  37.3362994  13.7578475  72.2138834  37.8996778
  14.0825462  70.9701395  37.1005154  77.3432875  70.3727770  28.8590527
  77.7005959  69.6469069  29.3705964  76.8770790  70.9103346  29.4992971
   3.2174358  64.0705156  44.6209240   3.4329164  64.8113871  45.1874161
   3.8225940  64.1489506  43.8834524  18.3989835  64.7174549  43.1790590
  18.0803084  64.1876316  42.4483299  19.1816199  65.1501513  42.8377581
  24.4420075  57.1745253  24.2748761  23.6980820  57.5691080  23.8197827
  24.5387840  57.6954174  25.0720811  72.4758339  75.4955006  23.4166074
  72.5774097  74.7787571  22.7903557  71.9976997  76.1695814  22.9336619
  79.6669388  66.0144854  58.4931421  80.3420544  66.4229965  57.9513216
  79.9684715  65.1139688  58.6130381  24.7683191   2.2916745  43.7590408
  24.4971609   3.1579235  43.4552002  24.2976093   2.1688180  44.5834017
   4.6498540  70.4904127  26.2653399   4.2726770  71.3146639  25.9578037
   5.5739456  70.5442047  26.0216355  38.8394550   0.2129108  33.1463003
  39.1324285  -0.2144211  32.3414493  37.9211131   0.4277355  32.9828048
  11.6278064  31.8240285  45.1668739  10.9184146  31.9208980  44.5315695
  11.7466140  30.8779454  45.2508211  79.0548277  68.7454653  46.8459082
  79.2191792  69.4516277  46.2209654  79.7309732  68.8551474  47.5145102
  71.2648535  58.1829548  33.9705348  71.1497021  59.1176367  34.1418290
  72.2070312  58.0780029  33.8381720  81.9655895  68.5857105  50.6399441
  81.0285759  68.5650539  50.4454613  82.3495770  69.0805912  49.9161530
  21.8936157  18.9990282  24.9035311  22.4015450  19.6034253  25.4447722
  21.6994190  19.4950795  24.1082597   5.7628512  53.3411694  33.5234308
   5.4308784  52.5710535  33.9848900   4.9935102  53.7109804  33.0903172
  44.1831636  60.6359863  10.2529025  44.8260832  61.3356781  10.3683043
  44.5251036  59.9084377  10.7724953  30.8766079   9.6183950  33.7023807
  30.2760506   9.0788221  33.1881595  31.7173409   9.1647512  33.6423397
  10.1845789  59.7647715  33.1125140   9.4616270  59.2780209  33.5083008
  10.9657967  59.4388056  33.5593653   4.8592171  59.4456005  62.3016930
   4.9942914  58.5819387  61.9117260   4.9739549  60.0573540  61.5744877
  16.2453759   3.9239272  59.5805264  15.8422565   4.3791264  60.3197956
  15.5775428   3.9421308  58.8950348  15.6613398  68.0155754  30.1934910
  16.0623920  67.3027468  29.6962380  14.8094606  67.6709986  30.4614425
   2.9551154  52.2059107   7.6061147   2.1670851  52.5358391   7.1743888
   2.6330355  51.5479612   8.2222307  24.5373321  59.8192406  34.0121675
  24.2472935  60.0105524  33.1202555  24.9039841  58.9365482  33.9606500
  25.5789971  46.2739086   8.2402599  24.9749970  45.8803654   7.6105434
  25.4692531  47.2171736   8.1200993  80.2372646  53.5193253   9.7158033
  79.8114729  52.7489710  10.0919425  80.9834385  53.6857414  10.2917993
  30.4653215  76.8590546  28.8454270  30.2114010  77.4966002  29.5127249
  31.3988185  76.7119265  28.9976430  14.8056936  75.0601435  23.6884308
  15.6421149  75.5009604  23.5390639  14.2231345  75.4185247  23.0187893
  58.2336473  74.7823954  53.7952042  58.2704782  73.8486052  54.0023470
  58.6113501  75.2129412  54.5621490   4.7547594  55.8618307  48.0647135
   4.0356180  56.3744688  47.6955700   5.5166674  56.4377689  48.0012989
  19.5588028  55.6130791  33.3785319  20.2279043  54.9408007  33.2497859
  19.8713470  56.1219025  34.1266298  64.1187811  41.3588285  25.6242061
  63.6638927  41.9992352  26.1711860  64.4364643  41.8650866  24.8765373
  16.7392683  74.1999578  53.8733149  16.4894116  75.1047373  54.0608931
  16.6952062  73.7585545  54.7215223   8.5042620  59.7186708  49.0724945
   9.4448495  59.7032642  48.8956022   8.2631093  60.6425905  49.0058041
  80.9628201  71.1898184   8.1483364  81.3427258  70.6743908   7.4368364
  81.1555862  70.6855679   8.9387810  18.0811095  68.3466768  15.7575703
  18.7545288  68.9264727  15.4017985  18.5322285  67.5144911  15.8996689
  75.6324625  48.8582325  56.8367672  75.8067036  49.6422386  57.3575449
  75.1798391  49.1833496  56.0585213  74.1420650  76.0862207  56.6404772
  74.3454695  76.9731617  56.3434935  74.8730230  75.5545902  56.3253546
  27.4165869  61.9046068  42.5489378  27.1225762  62.1102905  43.4363413
  28.3590460  62.0712519  42.5642157  77.1093893  61.5475655  53.8706779
  77.7064037  62.2923946  53.7997150  77.5816107  60.8222914  53.4617615
  76.4407825  56.2796021  30.9738970  76.8969965  55.8387613  30.2571249
  77.1324110  56.5021706  31.5970707   7.6143193  56.9524908  66.9166183
   6.8188512  57.0830965  67.4327612   7.5879055  57.6451254  66.2564659
  76.2821770  71.5911627  46.4103317  76.0446215  72.5020123  46.2366915
  76.0898638  71.4664745  47.3396873  66.6778088  52.7892208  38.0493093
  65.8791590  52.2621870  38.0743313  66.9886398  52.7103806  37.1474218
   6.6736430  45.5111122  43.3997440   6.4340419  46.2936354  42.9032755
   5.9287417  44.9201632  43.2895851  80.5244923  63.5680342  36.8479657
  81.3361645  63.0941916  36.6665912  80.6586170  63.9495277  37.7155519
  79.0428352  33.4893823  21.7890668  78.5924339  33.3815336  20.9513664
  79.6347475  32.7389407  21.8411088  11.7564344  72.8998995  45.4472971
  12.2499073  72.7865314  46.2596130  12.2003210  72.3332596  44.8163319
  74.4837570  50.4961824  38.2275367  74.9195910  51.1331797  38.7936783
  74.1736746  49.8165369  38.8260055  81.2494373  45.8125782  36.5268159
  80.4923725  45.2314329  36.4535642  81.8288708  45.5420160  35.8145809
  79.1682673  76.2278414  50.1565027  79.9694014  76.7430830  50.0619268
  79.1664886  75.6461239  49.3963528  64.1037178  53.0453396   2.2452281
  64.8050547  53.6966133   2.2309721  63.8273478  53.0109835   3.1610173
  43.3408785   8.3506638  36.9132447  43.1248426   8.2668376  37.8419709
  44.1497707   8.8623011  36.9007325  67.4871731  74.6244669  59.7005367
  67.5582504  73.8442230  59.1506243  66.5526819  74.8317194  59.7025967
  79.9680328  57.9629850  42.4182749  80.8515167  57.9781675  42.7863216
  79.6082067  57.1198988  42.6938820  21.1417198  71.2223768  60.5639505
  20.2933550  70.8733702  60.8372736  21.0026002  72.1672392  60.4998493
  48.9543200   4.8233324  18.4128928  48.4137201   5.3304684  19.0185332
  49.6881199   4.5170802  18.9457858  80.6027603  57.1454382  57.1015072
  79.9777412  57.6752853  56.6066885  80.1582718  56.3073063  57.2287941
  15.3318286  44.0098953  16.1349678  14.4873798  44.2816591  16.4945269
  15.1190007  43.6366606  15.2796137  11.0922122   4.4796315  49.0918016
  10.9176552   3.8767481  48.3691072  11.3581514   5.2942258  48.6652565
   3.2943240  72.7912903  24.0612936   3.0399841  73.0367899  24.9508286
   2.4670625  72.7317524  23.5834575  13.7045133  47.5205946  49.1372871
  12.8583360  47.1226978  49.3419600  14.1359186  46.8853712  48.5657883
  14.6176815  50.9137011  25.0171852  15.3384209  51.5267658  24.8725486
  14.4635749  50.9436846  25.9614205  17.8940499  74.9996090  43.5768318
  17.8672647  74.0432501  43.6066294  18.2255793  75.2568531  44.4371510
  42.1567726  10.1798403  32.3987889  42.0579100   9.7409582  33.2436800
  42.7166557   9.5944101  31.8888497  13.3498740  66.2117052  38.2267332
  14.2565572  66.2021542  38.5334373  13.1936431  65.3208542  37.9133463
  78.5529661  65.7574368  40.7860899  77.8399801  66.0278893  41.3646555
  78.1588316  65.1019859  40.2105284  39.7101331   2.4889572  34.5200968
  39.0034008   3.1345260  34.5191956  39.3088126   1.6939944  34.1690850
  36.9732833  70.5856037  27.5469375  36.3292027  70.6697273  26.8438625
  36.6108131  71.1019087  28.2668543  65.8630657  70.9418678  54.1324043
  66.7150879  71.2830162  54.4042540  65.3590822  71.7195463  53.8927126
   1.2971471  25.1781702  50.2926493   0.9011240  24.7622061  51.0584021
   1.4435467  26.0850668  50.5616045  13.8962412  52.7559757  17.2361815
  14.3992639  53.5329056  17.4802804  14.4647014  52.0207930  17.4655032
  69.3427277  53.8331652  29.7007465  68.4153700  53.9508009  29.9066639
  69.7949362  54.4591808  30.2662945  70.2418900  52.6833773  37.8303790
  69.8357868  53.2114029  37.1429944  70.2701426  51.7981863  37.4672389
   7.2162634  71.0302496  39.2854190   7.0824081  71.9704485  39.1656399
   7.7222574  70.7607889  38.5188723   3.7023908  23.7137961  34.8510480
   3.7700748  22.7806044  34.6490479   2.7850848  23.8404799  35.0933957
   7.3765695  52.6085806  35.6504989   6.9794309  53.0221081  34.8840094
   7.9394555  51.9241238  35.2886844  48.8091135  68.7639189  39.2579079
  48.2965088  68.9689875  40.0398350  48.5181713  67.8881693  39.0036535
  73.6229467  62.3464870  27.4269605  73.4938574  61.7559242  28.1691217
  74.0708780  63.1056786  27.8000808  66.5602636  73.2758284  56.6126966
  67.0873690  72.5031948  56.4091587  65.7859135  73.1908035  56.0564756
   4.6551117  62.4310398  36.2970829   4.4573212  63.1329155  35.6770205
   4.3139902  61.6398621  35.8800626   0.4653215  72.7663565  42.4893141
   0.9763893  72.4981403  43.2529259   0.7201588  73.6765575  42.3382282
  78.7311792  49.8156214  48.2059813  79.2630959  49.1183138  48.5894728
  78.4454870  49.4629812  47.3632145  10.5560613  32.2463727  33.2102728
  11.1779630  32.6242566  32.5884414  10.8301759  32.5886655  34.0611148
  56.7964745  62.6881456  42.9738235  55.8974218  63.0066442  42.8931952
  57.0742559  62.9728460  43.8444614   5.2336854  45.4342127  36.5087557
   4.4549724  45.3930807  37.0638657   5.6858212  46.2300014  36.7889833
   1.6481039  70.7736206  58.9936066   2.0657504  70.0329113  59.4330978
   2.0192406  71.5457487  59.4205856  17.0815921  56.1047363  20.3294849
  16.1950219  56.2589121  20.6557608  17.1647048  55.1515150  20.3030920
  42.7020645   3.0303773  27.3149109  43.4091663   3.2178664  26.6975880
  42.0390606   2.5813380  26.7904854  58.9407873  62.1062279  48.9394045
  59.4452620  62.3965454  48.1795025  58.4501076  62.8816986  49.2116261
  72.5574732  70.9188604  61.0828829  72.9563618  70.3151321  61.7094851
  73.2962084  71.2724686  60.5874395  70.7249308  62.4247742  41.0155869
  71.5778494  62.8246927  41.1853838  70.9301805  61.5330553  40.7346201
  22.7815151   9.4571787  58.2307053  23.3671284   9.5563865  57.4800777
  21.9390249   9.2142475  57.8467417  55.5842495  34.8987865  10.8069122
  55.5774689  35.7789445  11.1830902  55.7935667  35.0348687   9.8828441
  49.4653368  20.2833796   9.1010225  49.9631023  21.1003566   9.1328049
  50.1224089  19.6091437   8.9281279   0.5340866  57.8710222  43.8668585
   0.9034720  58.7400389  44.0236807   0.7382026  57.3771381  44.6609926
   6.8903875  66.0059118  43.9988422   6.8940192  65.5315447  43.1674623
   7.6783049  65.7035971  44.4505358   3.4527108  73.1090069  64.4573450
   2.8769279  72.6714087  63.8302803   3.0711436  73.9801979  64.5653582
  80.4015255  39.6219373  48.5976267  80.7701302  39.8694015  47.7496147
  80.3010941  38.6713719  48.5469341  79.7079515  59.5352411  26.5270758
  79.5297670  60.3123951  25.9974384  80.1249695  59.8753500  27.3186898
  79.3426800  65.0686026  46.0178089  78.5745001  65.0540352  46.5886974
  80.0411320  64.6823263  46.5461922  56.8956375  61.7275381  33.5215330
  57.2184658  62.5490761  33.1512690  57.6861668  61.2569189  33.7857556
  64.8137474  51.7738867  47.5122738  64.3308592  51.8928289  46.6944122
  64.6210814  50.8739758  47.7754688   5.7341182  69.1852522  36.8691754
   6.5237606  69.7222281  36.9351649   5.1382136  69.5545101  37.5209260
  31.1361051  60.6039047  16.3312697  30.5296183  61.1397696  15.8201396
  30.9575033  60.8417511  17.2410846  30.1059723  37.5646639  10.4982710
  30.7042313  37.3828506   9.7735208  29.7521520  36.7080188  10.7374358
  77.9561138  57.0118141  14.0199876  78.1457710  56.3048410  13.4031796
  78.0847549  56.6178322  14.8828077  15.3952634  32.0947862  30.6087255
  15.8236980  32.7056193  31.2083578  15.6613135  31.2289786  30.9182811
  74.3475676  60.8128691  36.7166018  74.0595722  61.6058826  36.2644720
  73.6959934  60.6796455  37.4050307  76.6620398  59.5406675  29.9864125
  76.9215107  58.7654495  30.4843521  76.6612577  59.2502880  29.0743208
  71.4075089  31.5328121  46.7469978  71.5858936  30.7487512  47.2662878
  71.0236931  32.1502614  47.3696280  16.2197530  67.1057224  25.9839082
  17.1179867  67.0037651  26.2985706  16.1900318  67.9937601  25.6279016
   9.9690300  70.8661938  57.0882177  10.2578151  69.9771404  57.2941685
  10.7667196  71.3934183  57.1324492  23.2406020  57.6240301  27.5079107
  23.0205250  58.4980583  27.8302050  22.4008751  57.1667576  27.4632406
  13.6550474  53.6593246  34.0822053  14.4076693  54.1082191  33.6971259
  12.8991675  54.0151358  33.6150050   3.4132540  61.8649530  40.6539249
   4.0278500  61.2473774  40.2575588   3.9052653  62.2659731  41.3704014
  12.5036275  71.9591808  55.4203892  12.3033488  71.5212107  54.5931625
  13.4196806  71.7405510  55.5915022  22.0008183  58.5402346  17.4716508
  22.6624942  58.1771421  18.0603623  21.9994164  57.9488039  16.7190301
   2.1558945  50.9614563  42.1207809   2.7190256  50.9301090  41.3473892
   2.6437205  50.4839373  42.7917719  20.9131241  72.2816658  19.1714644
  20.4217553  71.5233088  18.8557303  21.7996931  71.9501638  19.3140650
  14.7111845  51.6803598  20.8854246  14.8852968  51.0300922  21.5659189
  14.2128992  52.3656082  21.3308191  80.8874035  51.3695860  45.3578424
  80.6935215  51.8425655  44.5485640  80.4180813  51.8542862  46.0368443
   2.5408393  32.2206211  38.7841821   1.6590020  32.5642991  38.9272928
   3.0910054  32.7107906  39.3951511   3.1334582  72.5031137  44.4573689
   2.9802203  73.0723667  45.2114964   3.8205549  71.9025755  44.7462988
  14.7337615  58.0274820  37.6855421  14.0511668  58.6985207  37.6833248
  15.5253184  58.4901142  37.4105072  15.2889800  44.0740585  30.9758162
  14.3987501  44.1023874  31.3264179  15.4151094  44.9330568  30.5727696
  50.3518295  11.0099518  60.3694916  49.7006655  10.3649855  60.0933838
  49.9070406  11.5269542  61.0411310  81.1119938  63.8055992  60.0306988
  80.8235645  64.4030380  60.7207108  80.3363800  63.2830858  59.8266459
  80.6192207  48.2675552  39.6632171  80.2458954  48.5111761  40.5102777
  80.0934505  48.7469864  39.0229511  19.3705440  72.8300858  48.2386065
  19.6893561  72.4912977  49.0751553  18.4666789  72.5199032  48.1833982
  50.3986502   3.3569601  35.0359702  50.6474972   4.0045244  35.6954908
  49.4448614   3.4203440  34.9859953  22.7250838  69.7320652  34.0714121
  23.0679941  69.7826052  33.1791735  23.4998822  69.7964334  34.6297812
  34.4126010  76.2132359  61.9261360  33.5172558  76.3345909  61.6101265
  34.7619581  77.1011066  62.0027542  44.1476202  22.8045583  66.2847042
  43.9267826  23.3878255  65.5585766  43.3285189  22.7054930  66.7699718
  31.0493374  67.5020742  27.5159574  31.0689211  66.6077471  27.8565907
  31.3508129  67.4204016  26.6111517  44.8726082  10.9174085  47.9003763
  44.6840668  11.7355919  47.4407434  45.3704405  10.3974831  47.2694445
  26.3399124  61.2478685  20.6965280  27.1642637  60.8091164  20.9067059
  25.9728742  60.7356358  19.9760211  36.8210578   2.0283087  32.2383785
  37.2352576   2.8895971  32.2917986  36.9919538   1.7354597  31.3432431
  52.4726057   3.4904140  40.1038074  52.4778652   3.0043900  39.2791939
  52.1583748   2.8596523  40.7515955  62.7093840  56.6891575  32.8235173
  63.6037016  57.0015049  32.9608798  62.7790403  55.7355928  32.8692913
  39.8943210  11.6496515  35.8966255  39.5918655  12.0470858  36.7132020
  40.8277750  11.4920962  36.0382938  24.2212081  62.5482702  37.4552512
  24.8331451  62.4050283  38.1772256  23.5854793  63.1748772  37.8008628
  25.8867311  64.1828060  32.1618295  26.2518859  64.9660540  31.7502236
  25.1464081  63.9424706  31.6047001  47.6216269   6.4869767  35.9761262
  47.6731443   6.3907957  36.9270873  46.7825317   6.9218940  35.8244848
  27.0323133  67.4224424  27.6927066  27.6354098  67.9689169  28.1965637
  27.5838113  67.0034552  27.0320010  50.3000116  76.2964964  54.0489912
  50.5005455  76.6325855  54.9225283  50.8684921  76.7968082  53.4635448
  20.0862527  75.4981279  66.1352110  20.0339913  75.6506300  65.1916838
  20.7755375  76.0904074  66.4357471  20.7837415  55.2365398  49.6363354
  20.1996183  54.4950438  49.4775581  21.5510345  54.8507690  50.0590324
  81.6802216   3.7030298  44.6782160  80.8739948   3.2029587  44.8053598
  82.3693466   3.1401914  45.0311327  58.7069893  23.1413150  60.5379486
  59.4951391  23.6059332  60.8193493  58.1064939  23.8337183  60.2618790
  16.0671008  35.6784296   1.6790180  15.6162441  36.2063885   1.0200644
  15.5243635  35.7595754   2.4632901  21.0516858  70.1501513  25.4212308
  21.9845343  70.2977705  25.2655482  20.6240463  70.9327364  25.0734997
  30.6304646  74.8741293  41.5321779  30.8145285  75.4181957  42.2979116
  30.6088614  73.9800167  41.8732548  68.6087847  -0.0910706  35.9770179
  69.4563484   0.0042436  36.4115071  68.3785057   0.7969262  35.7037663
  26.7644858  62.0573092  23.4148860  26.3506007  61.9989014  22.5537705
  27.7001548  61.9600058  23.2380033   8.9869982  76.5349722  45.4931498
   9.3822658  76.0571146  44.7640133   9.6588516  76.5301847  46.1749315
  18.4674668  59.7649050  46.9389725  19.0221369  59.5115995  46.2011337
  19.0832698  60.0402784  47.6180792  78.7424660  73.2697678  24.8421407
  78.1416082  72.9263783  25.5034184  79.0545607  72.4940491  24.3762088
  41.7149830   5.9745628  41.6303062  41.2110138   5.3372478  42.1363401
  41.7249012   5.6204015  40.7410908  60.0131559  11.5684795  25.2539730
  59.7554255  12.2558653  25.8682275  59.2316532  11.0233295  25.1628900
  18.7447071  65.3708076  51.4074993  17.8833020  65.6067610  51.7517948
  19.0703213  66.1757374  51.0046387  80.7787704  53.0918646  40.8446693
  80.4968643  52.9737186  39.9375868  80.1454163  53.7071753  41.2141085
  19.3817985  73.8594198  53.3166170  19.8790002  74.4968653  53.8291502
  18.5094571  74.2450809  53.2359028   8.9964539  74.1153002  58.7104940
   9.7358346  74.1966677  58.1080580   8.5459244  73.3185244  58.4304857
  46.0660601   9.7181195  45.8988047  46.6430235   9.0094233  46.1835766
  46.1303377   9.7102016  44.9437952  32.9989481  74.8907995  17.1206391
  33.1878114  74.9834299  18.0544388  33.4295511  75.6424809  16.7134690
  24.3374157  46.1197853  24.8629570  24.2879272  45.1767826  24.7063327
  24.1044688  46.5146828  24.0227056  28.4509373  51.6052485  60.3569651
  28.9872575  51.7566872  61.1352015  28.3864045  52.4642849  59.9396849
  29.2494249  62.5955153  25.3840899  29.4019294  62.9802132  24.5209670
  28.3428478  62.2898960  25.3533101  11.0604441  74.0164089  56.5634346
  11.6178453  73.3126163  56.2314558  11.2835085  74.7739697  56.0225296
  36.4102674  75.2074337  56.6652775  37.1244526  75.5703545  56.1413908
  36.1622190  75.9178591  57.2568846  18.0978489   0.5900167  17.6535463
  18.8085890  -0.0481309  17.7155769  18.1409454   1.0772532  18.4763312
  78.3793783  68.2059383  25.5406070  77.6350594  68.7499094  25.7981181
  78.7425804  67.8898287  26.3678861  18.8996840  44.8901939  48.4247160
  18.1734741  45.1324224  48.9993238  18.7553513  43.9633512  48.2340336
  12.0492315  67.7649212  36.3945174  12.6301754  67.4166203  35.7181883
  12.4794292  67.5391912  37.2192645  20.6434965  71.5141058  30.7138467
  20.3785372  71.7389584  29.8219538  20.8222532  72.3572016  31.1303401
  19.5602274  14.6274757  38.3403397  20.3779244  14.5491791  38.8317394
  19.2161429  13.7349927  38.3041549  39.4363117  54.5627165  30.2610326
  39.5601964  53.8773155  30.9176207  38.8931274  54.1536617  29.5873427
  23.8983512  62.3447227  46.4224625  23.0851769  62.1795130  46.8996286
  24.3660116  61.5099955  46.4499617   0.8927963  59.7614384  24.2775154
   0.0505491  59.4331932  23.9627004   0.6686214  60.5251741  24.8091936
  34.0906382  73.5001945  45.3411770  34.0836954  74.2403507  45.9481001
  33.4751153  73.7498379  44.6519470  44.5323706  10.6412148  34.5398545
  45.1750994  10.5570650  35.2441645  45.0104189  10.3933752  33.7484789
  33.9738131  60.9206963  19.3685138  34.5423126  61.6867113  19.2894125
  33.0983424  61.2847090  19.4999552  14.1895568  62.3560762  39.3629408
  13.5073769  62.0183849  39.9433088  13.7102473  62.7587748  38.6388326
   5.9710646  61.4647818  44.0502262   5.8382130  60.7610559  43.4151268
   5.5602545  62.2304630  43.6487246  77.6896715  67.3781061  34.3621445
  77.4264717  68.1770039  33.9052820  77.9605532  66.7813921  33.6644459
   5.5473310  62.2491121  50.5171633   5.8109760  62.2022438  49.5981836
   4.8072740  61.6458416  50.5850935  38.0531669   9.9748105  12.8119433
  37.6956296   9.5243466  13.5771108  38.9634705   9.6825236  12.7656007
  50.5857992   2.3369111  31.6597486  50.6879330   3.2789147  31.7955041
  49.7871685   2.1113761  32.1367764  73.6675167  46.2929344   5.4813814
  73.2337713  47.1423721   5.4004180  73.2237196  45.8662796   6.2143475
  25.3534007  59.8453808  24.3113208  25.6659818  60.6958675  24.0027833
  24.7087550  59.5754623  23.6572504  10.2838802  67.2294903  39.0854788
  10.0033498  66.6525745  38.3750558  11.2329841  67.1128178  39.1281533
  20.4648447  66.1685610  59.4967842  20.9082198  65.3806925  59.8112965
  20.8365417  66.3219643  58.6281443  25.2098393  70.2277613  35.1608896
  25.6466460  70.8519459  34.5813823  25.8482051  69.5245838  35.2802873
  73.0358887  42.5530195  38.7488031  73.1567574  41.6034889  38.7521768
  72.1559381  42.6811934  38.3945537  47.6197052  12.2607064  47.4566364
  47.8132868  12.9454195  48.0968904  46.7028999  12.4044549  47.2220278
  25.1274729  63.0114698  34.4679546  24.7698140  62.1376753  34.3104959
  25.3708839  63.3307886  33.5990381  35.5833316  71.5785360  36.3645434
  36.1435461  71.3058472  37.0912027  34.6932530  71.4009333  36.6686010
  18.3104658  53.8591099  58.8922501  19.0288687  53.2267427  58.8766241
  17.6587236  53.4960556  58.2925367  13.4940827  71.2162256  26.8660259
  13.7371171  71.2105942  25.9402108  14.2205358  70.7757568  27.3070359
  40.8447647  76.5003109   3.5025692  40.6716824  77.4381781   3.4208363
  40.0380087  76.1389732   3.8697383  23.8481355  65.0020218  56.7804337
  23.9871144  64.4807005  55.9897757  22.8968143  65.0360298  56.8807507
  43.0852985  12.3397481  44.8032904  42.9798555  11.5582073  44.2607927
  42.7631044  13.0562007  44.2563725  24.6153641  13.5153902  33.7005281
  25.1903200  14.2540562  33.5004568  23.7319565  13.8817239  33.6602306
  10.1622748  49.6337748  40.4168749  11.0430014  49.7680044  40.7669210
   9.5841277  49.7550869  41.1700392  10.5830097  66.6079998  15.5849087
  10.1164460  67.4424744  15.6317973  11.0513616  66.6419888  14.7508085
  20.5850863  64.1634941  35.4153848  20.8860874  64.1340208  36.3235497
  20.9215140  64.9938393  35.0783825  12.8543365  36.1465120  50.1136780
  13.6909246  35.8758402  50.4919481  12.3127759  36.3753247  50.8690500
  16.2693048  17.9710364  14.3357837  15.3779519  17.7284324  14.0850556
  16.6053510  17.2033370  14.7983241  50.7491398   8.5450095  38.3495975
  51.6138649   8.2238460  38.6052084  50.7196903   8.4241939  37.4005103
  33.6632729  57.5806141  37.0031643  34.5923853  57.8086853  36.9720840
  33.2147455  58.4183216  37.1185207  27.6176786  61.9126701  48.3398151
  27.1714854  61.0955811  48.1173134  27.3146009  62.1179104  49.2242670
  22.2200966  15.0380230   4.6005806  22.6285791  15.8493829   4.9023587
  22.3798800  14.4122481   5.3070557  40.5294275   8.6862850  12.7266014
  40.9399652   8.0601156  13.3229256  39.9509120   8.1535083  12.1809793
   3.4764171  58.5889530  48.0297899   3.7882936  58.5201263  48.9321327
   4.0431187  59.2487907  47.6301765   8.7832165  55.4021788  34.8335552
   8.7936962  55.2607155  35.7801867   8.7741959  56.3541174  34.7337246
  41.5275192   4.7890326  38.9546537  42.0833635   5.3057313  38.3713078
  40.6716299   4.7822490  38.5261178  17.4186862  53.2614660  22.8918815
  17.8329730  52.4139547  23.0541086  17.2918987  53.6367941  23.7632513
  23.6217427  62.8111649  43.6809683  22.6661253  62.7941895  43.6286259
  23.8104486  62.8002310  44.6193171  23.3487988  25.0435662  26.4119124
  22.7220058  24.5263839  25.9060621  23.5831881  25.7689714  25.8330512
  38.2805037   1.1657707  40.2317810  37.4319220   0.8394016  40.5311489
  38.8286304   1.1628612  41.0164976  72.2617102  30.4514074   4.0287110
  72.4034786  29.8174310   4.7317111  71.9872904  31.2505031   4.4785678
  70.3254271  43.5502243  38.2647920  69.3883801  43.6596918  38.4266210
  70.4747152  43.9793253  37.4222827  10.6884897  72.0173025  18.4156883
  10.2867639  72.4986649  19.1389728  10.5225313  72.5603628  17.6451218
  62.5849390   0.3834199  27.5851560  62.6126528  -0.0609955  28.4324813
  62.7686310  -0.3059625  26.9470024  12.3303699   8.1411856  26.1570239
  12.6175141   7.2280979  26.1498499  13.1329787   8.6435670  26.2972569
   3.4083417  52.3955822  11.5664947   3.9903051  52.7976179  10.9215772
   3.9142400  52.3965168  12.3790812   9.8272902  55.6182241  42.9470301
  10.2256441  55.8332634  42.1036434  10.5700302  55.4917336  43.5374260
   3.1003913  56.9203901  35.0727034   2.7564606  56.1769009  35.5678487
   3.8739476  56.5744448  34.6275473  55.2227974   4.0059671  45.1385164
  55.6793928   3.2660076  44.7382498  55.7495213   4.2250293  45.9071541
  38.6960340   5.3682667  36.5660453  38.7900019   4.5280886  37.0149350
  38.3761978   5.1391500  35.6934381  16.8505669  49.9225378  48.0606604
  16.7789912  48.9780664  47.9225254  17.5783193  50.1920748  47.5003433
  36.3783693  76.0539341  40.8580875  36.2754083  76.9040251  40.4303360
  36.3713598  75.4217577  40.1393843   0.4294920  65.7102680  32.8949261
   0.7304797  66.3719511  32.2721791   0.4865141  64.8848534  32.4136066
  21.1081553  64.3391323  41.8569231  20.4505253  64.2112780  41.1732531
  21.7346478  63.6280012  41.7226219  20.8770466  61.4436293  41.9234848
  20.3096199  61.8099928  42.6017427  21.3244843  60.7148266  42.3534584
  36.4133501   7.3507130  44.7433996  36.4972830   7.3301017  45.6966925
  36.8213344   6.5362614  44.4493771   0.7766853  70.3540611  40.9846544
   0.6155046  71.0323763  41.6405058   0.6440729  69.5305586  41.4542150
  60.9557533  51.4062595   0.8797339  60.2137280  50.8247471   0.7139806
  60.5973673  52.2876453   0.7751133  12.5629508  63.6438751  51.0742664
  12.5940549  63.5534239  52.0266771  13.4726667  63.7959290  50.8182812
  20.1078057  46.5734673  54.7856283  19.6420836  47.0666647  55.4609680
  20.9521675  47.0169878  54.7045374  54.4813395  19.0285933  53.9340687
  54.1659975  19.2165291  54.8180771  53.6933947  19.0421808  53.3907604
  29.8697567  13.1779432  45.4901028  30.2665377  13.6713052  46.2080097
  30.5923867  13.0136728  44.8842525  18.2479119  67.0141315  44.7950125
  18.9739084  67.4574280  44.3560934  18.1946969  66.1598492  44.3665218
   9.3548441  72.8395891  38.7617493   8.5897148  73.4109163  38.8280344
   9.9915689  73.2208872  39.3662524  70.8781385  43.4043264   5.2258575
  71.6305304  43.1519079   5.7610416  71.2185383  43.4312820   4.3316361
  36.6004300  73.3595705  44.3990421  35.6982446  73.2670641  44.7052097
  36.6672325  74.2737532  44.1232920  17.9435575  71.2979841  35.4500079
  17.1514940  71.0713530  34.9626637  18.6620307  71.0162306  34.8837566
  25.7910609   5.9581506  47.8710175  26.7245030   6.1067128  47.7198553
  25.6423283   5.0572455  47.5838232  14.3528867  67.5082874  41.7201233
  14.1599703  66.9699764  40.9525061  13.5821700  67.4125242  42.2796392
  44.1368055   3.2349721  29.6023679  43.3763742   3.1961489  29.0223122
  44.8145580   2.7398250  29.1422391   0.0570538  56.2023115  54.4246960
  -0.4107621  56.4322090  55.2275181   0.5843481  56.9757891  54.2248869
  19.9709916  57.1950054  58.6764526  19.7768676  56.5973282  57.9544210
  19.4490397  56.8647289  59.4076967  23.0604172  49.8443747  52.3738146
  23.4152818  49.2810869  51.6860580  22.8491497  50.6640196  51.9268465
  59.4782877  69.5683622  46.4116001  59.7488832  68.6556578  46.3116884
  60.0062704  69.8964024  47.1395111  14.6287918  55.4809570  40.4159307
  15.3905523  55.8373785  39.9588585  13.9790201  55.3427029  39.7267914
  56.5684605   6.1171889  18.5226452  56.2008476   6.8689638  18.0579638
  56.9697618   6.4928347  19.3062758  53.9365768   9.2199266  34.8065257
  54.4387102  10.0338125  34.8475456  53.0847359   9.4449329  35.1806569
  25.4887080  69.2975616  49.1005039  25.5205154  70.2439308  49.2405224
  24.6099019  69.0431976  49.3819761  49.1370392   6.4990455  29.2642856
  49.2449188   5.7555699  28.6711264  48.9951324   7.2483450  28.6858010
  76.4811611  75.5068064  34.1342735  77.4034071  75.4143238  33.8952160
  76.0331821  75.6659937  33.3034873  40.7201099  12.2057915  46.3070965
  41.4616823  11.7993808  45.8586168  40.6359720  13.0672920  45.8984756
  49.1628361   0.9606015  28.5599589  49.2674112   1.1379360  27.6251602
  48.6521387   1.7005408  28.8884497  42.2992897  57.5535774  31.4691520
  42.7834606  58.3787537  31.4392424  42.8445721  56.9380426  30.9792423
  18.3716810  55.4725218  30.8179379  18.4769964  55.5745316  31.7638421
  18.9029086  56.1737967  30.4407907   6.4831907  46.1009407  26.3400626
   6.8160057  46.9108725  26.7266846   7.0995265  45.4273701  26.6275787
  22.9615450  45.2099800  29.1499424  22.4225044  45.8900404  29.5539069
  23.7003112  45.6847000  28.7690306  74.3754959  61.0139847  55.0769854
  73.7839365  61.6085291  54.6156740  75.1486063  60.9615803  54.5150328
  38.8117146   8.8348329  48.0731869  39.4966769   9.0337825  47.4348497
  38.9087343   9.5083672  48.7463665   4.5491973  55.9239578  22.0958042
   5.1527256  56.2084007  21.4094520   5.1100200  55.7545757  22.8527856
  12.0847389  77.0333714  17.5824738  12.3517653  77.9461635  17.4741244
  12.8954884  76.5336496  17.4865663  23.9437342  55.3258371  56.1113310
  23.8933468  54.6891689  56.8243122  24.2250967  54.8142385  55.3528261
  59.7607231  11.1956930  15.6034803  59.2259407  10.6628919  15.0149536
  59.7373199  12.0725930  15.2204263  61.5587473  20.0342536  59.3765163
  61.1803722  19.8400748  58.5189867  61.6188288  20.9892488  59.4011068
  32.9417348  70.9359503  37.0129681  32.0480800  70.7945776  36.7005134
  32.8435612  71.5252066  37.7608776  20.0022483  70.0765181  37.3134947
  20.6134868  70.7753038  37.0804262  19.1366816  70.4743528  37.2199249
  31.1973000  73.6551952  52.8307915  31.3138056  72.7464390  52.5536203
  30.5735683  74.0191364  52.2025108  52.6703310   2.9766086  33.6946392
  51.8587494   3.1432793  34.1739964  52.3958683   2.4779385  32.9250741
  71.6307259  58.3057404  53.5718298  71.0824108  57.7820921  52.9875565
  71.0145283  58.8764286  54.0310097  31.5587616   8.8555479  53.6054325
  30.7054067   8.4246206  53.5572863  31.6669989   9.2689204  52.7489042
   5.3907138  63.0500317  14.3001950   5.7205737  62.2073889  13.9881420
   4.9666360  63.4393072  13.5354364  73.7685108  18.7926304   6.3326710
  73.8888359  18.8137960   7.2820419  72.8306770  18.6427128   6.2133878
  21.8245292  65.4816151  14.4564176  21.4998841  65.1751089  13.6097240
  22.5688243  64.9111509  14.6483195  65.8254576  16.2756932  37.0965338
  66.2490702  15.9907508  36.2868476  65.1479197  16.8879962  36.8097258
  47.5630808  16.1376870  60.5416298  48.1771708  15.7134199  59.9423599
  47.0541716  15.4170048  60.9129238  34.2999864  17.7103758  21.1765003
  34.0501976  18.6334705  21.2181163  35.2317333  17.7240121  20.9576488
  28.5498071  58.7460375  32.7521014  27.8791118  58.0633640  32.7710581
  28.0568600  59.5646000  32.6956010  55.4042292  28.1796932  60.5527878
  55.1638556  27.5785017  61.2577868  56.2810993  28.4843111  60.7863331
  35.7287359   7.8365105  42.1833992  34.7734857   7.8327781  42.1224642
  35.9102035   7.6820982  43.1104660  63.0923748  22.9572797  23.3641601
  63.7881899  22.6846051  22.7660632  62.7198362  23.7395859  22.9574132
  18.8776135  62.8949165  46.4420080  18.2656360  62.2481728  46.7933559
  18.8726199  62.7409029  45.4972935  51.2156418  -0.0842016  33.5068154
  51.6051844   0.0344355  32.6405501  50.6063178   0.6483824  33.5977960
  34.7498488  60.6018114  32.4440026  34.4773173  59.6990347  32.2798133
  34.5197582  60.7586622  33.3598018  45.2124643   7.5486082  53.4522963
  44.4849873   7.4879640  52.8331614  45.4745436   6.6405034  53.6035967
  37.8675508  67.3435974  14.4082880  37.8418446  68.1778383  14.8769152
  36.9892454  67.2487402  14.0397561  56.8112659  28.0409408  64.1866541
  55.9658432  28.3307385  63.8438606  57.1443701  27.4367595  63.5231495
  72.3495054  28.5902190  42.0794773  71.7991209  28.9478898  41.3827848
  72.6675749  27.7578235  41.7299318  20.6162715  75.8349609  20.7972860
  21.2344408  76.2516069  21.3977075  19.8264027  76.3724852  20.8556724
  26.2645149  71.7085791  22.4746084  27.1184683  71.7241287  22.9067588
  25.8947659  72.5751686  22.6435542  34.2695332  72.2850990  30.7887936
  34.8533678  71.8462706  31.4074993  33.4020615  72.2153711  31.1873722
  56.2014225   0.0522262  24.7850394  56.8826655  -0.4020708  25.2807760
  56.0675862   0.8731348  25.2587843  44.5256186   9.6222067  21.4981365
  43.8003969   8.9975685  21.5089035  45.0296593   9.3905818  20.7180595
  54.7525167  15.2657318  54.4256496  55.2683067  15.7774293  55.0488377
  54.1168785  14.7983456  54.9676275  19.7723913  60.7080793  49.1638374
  19.8937118  61.5000010  49.6876478  19.6681023  60.0081921  49.8084354
  30.3526640  52.2317362  17.6475203  30.3409696  51.6621637  18.4167302
  31.1731672  52.7189255  17.7226937  74.1817665  18.8377750   9.2539638
  75.0903988  19.1103566   9.1261929  74.2280674  17.8862977   9.3476683
  72.4420929  18.5510480  59.5920801  72.5462151  17.6765800  59.9671745
  73.3352518  18.8380086  59.4019365  68.8535023  16.8392360  30.1987767
  68.5102987  15.9534848  30.3166175  69.7215700  16.8152845  30.6014180
   6.0998511  20.3626180  24.5339513   5.2726060  20.1208186  24.9504018
   6.3458252  21.1881447  24.9513650  73.8402987  43.6545277  23.9163089
  74.0455723  44.5436239  23.6271739  74.3442392  43.0897713  23.3303690
   2.7723101  39.7832227   1.5136336   2.1695453  39.1822338   1.9514921
   3.2838100  40.1695871   2.2244923   2.8673264  33.2790136  31.0316920
   1.9988754  33.2087040  30.6353569   2.7906302  32.8084207  31.8616867
  68.2279634   7.4500287  39.9086547  68.3833408   7.6053822  38.9770126
  67.5470257   8.0794442  40.1461267   5.6715399  27.6718807  23.7807202
   6.3161778  28.3792806  23.7968159   5.3710771  27.6009798  24.6867704
  15.1330113  10.1830220  66.9431639  14.9627602   9.5069307  66.2873077
  15.3231001  10.9698462  66.4322805  75.5476046  67.9792452  36.3721013
  75.7205486  68.9161015  36.4649463  76.3207865  67.6362085  35.9240484
  69.9349976  11.8579972  25.4664826  69.2410994  11.6557229  26.0940313
  69.6245527  11.4898765  24.6392322  72.0620537  31.1186981  24.9573874
  72.8898954  30.6382036  24.9516726  71.5174627  30.6500435  25.5898547
  12.5741673  38.6181092  48.8251638  13.2453763  38.3860779  48.1833935
  12.5211751  37.8563690  49.4023800   0.4728045  11.9305563  45.2247906
   0.6198867  11.0768318  45.6319189   1.3231462  12.1697819  44.8561144
  10.5621886  21.5202332  17.6509333  10.3458667  20.6366038  17.9486489
  11.5167236  21.5219641  17.5795734   1.2556195  -0.1817864  37.4615574
   0.7950138   0.0203688  38.2759356   0.9210419   0.4571278  36.8322086
  54.2861700  58.2750082  33.5916471  54.8994350  58.0138731  32.9046607
  54.3240118  57.5626802  34.2299151  16.6345143  15.9630418  45.4466677
  15.7639682  15.9595323  45.0487137  16.8441045  15.0375760  45.5724382
   0.1990526  20.1108241   8.6245751  -0.2509958  20.8837724   8.9655149
   0.9109472  19.9549770   9.2451793   0.8658072  20.2410054  26.2316966
   0.5795619  20.0969553  27.1336627   0.2583508  20.8968377  25.8894777
   9.8127079   0.7878003  60.9093714   9.9494493   0.6930979  61.8520069
  10.4019845   1.4968121  60.6519079  71.1281157  23.2296729  16.5515828
  71.5483856  22.9856396  17.3762345  71.3122463  22.4975562  15.9630835
  10.7429755   2.9557198  46.8694639  10.9729648   2.0336743  46.9842196
   9.8486453   3.0229181  47.2039604   3.2427064  52.9912090  18.2023692
   3.6866480  52.5671482  18.9367545   3.3463186  53.9281559  18.3685791
  17.5054967  49.0820885  17.9227817  18.1811333  49.5860910  17.4692094
  17.5405478  48.2155800  17.5176024   0.1467976  34.7737098  55.3139877
   0.4270083  33.9888883  55.7849121  -0.3866179  35.2549338  55.9465408
   6.7786908  28.1751490  12.2279513   7.3532683  28.1494856  12.9930878
   5.8960611  28.0892110  12.5882447  77.1873903  43.8119268   8.9330953
  77.5273657  44.6692133   9.1894341  76.2609863  43.9669943   8.7487942
   6.4432812  39.1694069  35.2429676   7.2169131  39.5509219  34.8280334
   5.7042253  39.6018600  34.8151684  50.7448053  27.1087337  16.3260961
  49.8981714  27.4469113  16.6177785  51.0495424  26.5663052  17.0535159
  23.3165836  11.3718021  26.1650157  23.9636850  10.7275856  25.8778286
  23.3025479  12.0253062  25.4657531  70.0182056  27.4620438  43.7461662
  69.2197084  26.9622731  43.9160538  69.7082281  28.3383441  43.5176039
  11.8545437  62.3603058   7.7904981  11.4470315  63.1868505   8.0493313
  12.2083759  62.0024109   8.6047125   7.3986167  45.1283789  13.4765220
   7.0988452  45.4292297  14.3343449   6.7640293  44.4582987  13.2225072
  70.0853682   7.1123117   2.5769469  70.8031893   7.3052412   3.1800571
  69.9331951   7.9363620   2.1143281   8.1499827  30.4943490  48.2148790
   8.1158650  31.3758516  47.8433657   7.3297530  30.4072046  48.7005329
  69.3620872  26.8226647  10.2802598  70.1086140  26.2235618  10.2784741
  69.7552156  27.6952553  10.2638471  21.5803623  48.6289501  19.2542100
  22.1966100  49.3434525  19.0931094  21.9990706  48.1000757  19.9333334
   9.3064559  16.8254983  26.5648293   9.6237892  17.3574722  27.2945786
   8.8349807  17.4429178  26.0055995  72.5014019  45.9356737  36.8288994
  73.1727982  45.4365206  37.2939801  72.0983934  45.3009367  36.2365031
  66.3470840  34.0563965  30.9720898  67.1694946  34.5420051  30.9084034
  65.6865215  34.6579289  30.6285048  19.4189572  34.3250704  12.4277139
  19.2427838  33.3852434  12.3838961  18.9310431  34.6947789  11.6918552
  19.7477281  21.4267254  44.4453335  20.0827694  22.2947526  44.6700716
  19.1128862  21.2293506  45.1339912  76.7637348  10.3578460  44.8987961
  76.7399883  11.2620163  45.2120781  76.3333893  10.3890312  44.0443611
  70.4045248  14.6301532  41.4501810  70.5512142  13.7497663  41.7960548
  71.2416506  15.0779879  41.5722036   9.0968841  38.5296273  29.0228081
   9.5364994  37.7969170  29.4542074   8.4392285  38.1179070  28.4622669
   9.5986336  49.5564365  37.8144956  10.3999627  49.1478109  37.4871922
   9.7466046  49.6542454  38.7551165  69.1104603  20.3153896  35.1210070
  68.1889248  20.4395652  34.8938870  69.4689655  19.8035347  34.3959475
   5.3132278  25.4877067  27.2483945   5.9918344  24.8951221  27.5717640
   4.7669721  24.9409080  26.6837311  81.9685745  36.6880679  36.5780568
  81.2248898  37.1963501  36.9018245  82.3985004  36.3623524  37.3688173
  17.8334641  38.6185336  35.9240007  17.0768440  38.0375552  36.0028672
  17.4725318  39.4369221  35.5831194  17.6348555  29.3237233  29.4486713
  17.5727785  30.1795244  29.0244269  18.5458934  29.0589452  29.3216419
  51.8445301  69.8466301  60.8881140  50.9051847  69.7444916  60.7350492
  52.2436476  69.1068554  60.4302120  79.8470068  25.1209664  26.2421465
  79.9064302  26.0760164  26.2662578  80.4256344  24.8271489  26.9457746
  79.4206333  71.3837814  48.7642288  79.5594215  71.4568663  47.8199673
  79.7015667  72.2294378  49.1137648  76.6053963   7.4573958  55.3016663
  75.7453918   7.3483068  55.7075262  76.5176630   7.0480734  54.4408607
  80.2460289  37.0182538  41.7759466  79.6807051  37.7492809  41.5264654
  79.6654272  36.2572551  41.7806530  63.7825871  27.5518823  39.9681568
  64.4318342  28.0062771  39.4312835  64.2712593  26.8427348  40.3859377
  10.5763209  24.4807625  17.9100800  11.4696825  24.8043108  17.7940953
  10.6454611  23.5348749  17.7806616  62.8899527  26.8197441  14.2764974
  63.3471775  26.3820910  13.5584199  63.5831738  27.0575452  14.8922300
  63.0200052  39.2673540  57.3776960  63.2477140  39.7992444  58.1402397
  63.1491184  39.8518753  56.6307735   7.4560934  42.9989195  58.1485367
   7.5609291  43.2003736  57.2186661   7.8164488  42.1173716  58.2447338
  15.0827670  46.8866491  29.7266054  15.6611335  47.3292303  29.1054416
  14.9172759  47.5395060  30.4067659  12.4366057  58.0936337  30.5661416
  11.6587389  57.5536919  30.7062030  12.1803594  58.7092638  29.8794317
  74.4853544   7.7291071  35.8876085  75.2177572   8.2520241  35.5614591
  73.7054062   8.2020009  35.5972791   3.0093813  37.2917080   8.5846710
   2.2607183  36.7042994   8.6880487   2.8755817  37.7021790   7.7303636
  51.6529274  77.3262358  21.9414186  51.5272427  76.3933420  22.1150255
  51.8529797  77.3710394  21.0064292  64.9929953  30.0882721  55.4348421
  65.4065037  30.4086018  54.6331978  65.3550196  30.6401515  56.1280966
   5.6905073  11.4494383  10.8397317   6.2276679  11.4563429  11.6319716
   5.2680248  10.5905318  10.8442891  28.3905411   5.9338623  18.6064756
  27.6062703   5.4939920  18.9345956  28.0862880   6.8032420  18.3460104
  32.3151541  10.0733376  19.0046585  31.6361833  10.4600358  19.5575547
  32.8744245  10.8109307  18.7609279  71.1920309  16.2283552  31.6806483
  71.2793827  15.4409516  32.2178602  72.0872307  16.4361823  31.4129496
  69.6448946  31.2702179  38.2855558  70.0776529  30.8067584  39.0026045
  69.1117382  31.9369316  38.7185264  25.9893632  61.4079523  63.4412146
  26.8178082  61.4734602  63.9162111  25.9034848  60.4767942  63.2367563
  20.2791524  33.7894964  23.4517455  20.1462531  33.2577252  24.2364669
  19.4697964  34.2928958  23.3636498   3.5525298  33.5162354   3.2722822
   4.3706137  33.7490511   2.8332293   2.9101911  33.4552288   2.5652382
  11.0600293  31.5002918  10.8119547  10.7276344  32.0857930  11.4923465
  10.5215156  31.6944909  10.0448024  80.7587147  25.6792498  15.4569674
  80.3433704  25.6971216  16.3191736  81.4832497  25.0611234  15.5529058
   8.7732702  44.1649246  21.8160057   9.4452685  43.6484337  22.2608519
   8.0731732  44.2547798  22.4625516  81.7687225  24.7903872   5.1209056
  81.9174671  24.5190525   6.0267127  80.9987354  24.2930341   4.8452598
  66.9625282  34.6760964  21.8854594  66.1150837  34.2539620  21.7444825
  67.0636177  34.6984553  22.8370428   8.9793944  38.9891386  17.1945190
   8.4377134  39.7349095  17.4526620   9.8439300  39.3661761  17.0312631
   2.8493100  42.3526525  30.6520391   2.5704944  42.7414799  29.8229980
   3.6841476  42.7782202  30.8474064   2.8824687  28.7689233  30.8225489
   3.2039559  28.0270839  30.3101516   3.4831131  28.8249397  31.5657330
  12.1444416  30.7229376  18.0577946  13.0027139  30.5723381  18.4539247
  12.2753811  30.5428052  17.1268606  48.3254194  74.8030901  59.9066639
  48.5163689  75.2532196  59.0837717  48.0672455  73.9200735  59.6423435
  14.9005568  38.7478018  30.7222629  14.6371496  38.1029654  30.0657296
  15.4254580  39.3837810  30.2362156  75.8299875  37.6031399  47.7129889
  75.3437090  38.4272504  47.7375793  75.2147675  36.9518685  48.0500078
  29.8396993  28.7469459  23.6451244  30.6154346  28.3418465  23.2573605
  29.3086696  29.0141296  22.8948903  12.7286327  37.3079109  37.2991490
  11.9513345  37.2146082  36.7483902  13.4242594  36.8711448  36.8076515
   9.1047186  38.2287884  12.4876750   8.9877486  38.1002069  13.4289598
   9.9217242  38.7218976  12.4129987  11.3112783  54.9819469  33.6329436
  10.3967202  54.8133039  33.8596058  11.2732410  55.3768969  32.7618527
   9.4431686  52.3772812  21.0461164  10.1315379  53.0315304  20.9263659
   9.7078961  51.8912792  21.8271089  19.7325635  29.0616345  42.5640821
  19.5074499  28.4259915  41.8847322  20.0265956  28.5286570  43.3028030
   7.0209032  38.2714176  58.9931870   6.4014983  38.9099073  59.3465996
   6.9741654  37.5317287  59.5989180   4.8955187  70.5695486  45.2521420
   5.6034487  71.1877871  45.4333735   5.3171551  69.8565149  44.7725153
  70.1315308  46.7801142  38.0080843  69.3822432  46.5118933  37.4762392
  70.8700132  46.2908220  37.6455045   9.8767084  21.0434771  38.7704349
  10.1606679  21.9351172  38.9718771   9.8390681  20.6061649  39.6210670
  14.1630054  62.6822901  20.2044988  13.9718878  62.2819233  21.0526800
  13.3650601  63.1611586  19.9804449  72.9946756  65.9117270  17.5632811
  73.8050652  65.5860090  17.9549479  73.2618713  66.2552023  16.7107213
   2.5107586  37.6416945  44.3582773   3.2332468  38.1092215  43.9391565
   1.7350674  37.9071498  43.8642454  13.8979864  17.1303761  52.9044867
  13.6802828  16.7290294  53.7457705  13.0524099  17.2601974  52.4750900
  79.5460320  40.0311804  51.1523247  79.7635698  40.0012636  50.2206516
  78.5891008  40.0336981  51.1748838  77.2138071  26.5403938  39.8429465
  76.7114115  27.3544955  39.8102188  77.6706982  26.5745211  40.6833744
   5.1755112  31.6016054  41.2490034   5.5863923  32.0661521  41.9781160
   4.9008444  32.2941923  40.6480789  71.8585873  43.8697100  27.8432894
  71.4787817  43.9982557  26.9741178  72.1420860  42.9554701  27.8479671
  16.1975574  53.1681156  64.4253349  15.6077969  52.4413109  64.6257496
  16.2859786  53.1490421  63.4724188  11.4865351  36.3997698  17.3178637
  12.2304058  35.9559798  17.7252197  11.8746209  37.1429825  16.8560684
  15.7394183  52.0628166  14.4220042  15.9971285  52.8110838  14.9604416
  16.5287101  51.8396187  13.9286160   6.4345241  74.9665737  56.1968946
   6.1509430  75.5766916  56.8777561   6.6834748  74.1746664  56.6734838
  17.6409972  15.4793727  28.3351088  18.5152006  15.4102504  27.9514170
  17.2719145  14.6002948  28.2500696  56.5838528  13.9914250  45.8666515
  57.0948887  14.7669959  45.6352043  56.8723822  13.3209240  45.2474499
  17.5679493  15.6693494  21.5477085  17.9772997  14.8690772  21.2187266
  16.6378129  15.5617547  21.3489532  13.3321834  46.0564947  41.7199850
  12.7592742  45.3184891  41.5117550  13.5781777  46.4165974  40.8679008
  33.2749701  34.4742966  19.6416104  33.5474873  33.5680294  19.7853053
  33.9069247  34.8170996  19.0096664   3.9965653  31.7466998  43.7973690
   4.1575977  31.1333132  43.0803871   3.1137243  32.0788860  43.6346531
  10.8733094  28.6433196  24.4757271  10.5933821  27.8159738  24.8673558
  11.5898669  28.4004378  23.8893938  28.7541032  28.6309385  20.7576394
  29.2915201  29.0743732  20.1013017  28.8407016  27.7006960  20.5493617
  11.5423310  56.2508917  35.8629751  11.5234411  55.5700636  35.1904058
  11.9708514  56.9944811  35.4390931  14.4331467  33.8457322  35.9398723
  14.1821218  33.2678199  35.2192926  13.7969649  33.6582136  36.6300488
  11.9068301  40.8435822  35.2511477  11.8662035  40.4508686  36.1231327
  11.2857914  41.5710831  35.2869368  69.1746092  29.3773770  20.1951623
  68.8854790  30.2414799  20.4883480  68.8624811  28.7777019  20.8728027
  73.2537460  58.9665127  26.1786962  72.6206493  58.2486153  26.1850953
  72.7174807  59.7584343  26.1398458   8.5293669  55.7075405  18.7026536
   9.4578159  55.6993008  18.4699595   8.1213433  55.1045561  18.0812371
   3.2160813  13.1817627  35.7810473   2.9432791  12.5788629  36.4726567
   2.7267587  12.8977394  35.0089550   8.9920115  55.1482058  26.3095117
   8.5223812  54.3143749  26.3296533   9.1127747  55.3326368  25.3780413
   8.7547094  50.2499628  34.8687792   9.5020175  50.8284569  34.7167802
   8.7771583  50.0716877  35.8089638  73.4256268  41.7145872  50.4358816
  73.8203526  42.3080778  49.7969818  73.9003754  41.8876839  51.2488270
  80.7419395  22.6288319  18.9065814  81.1749363  23.1555128  19.5784128
  79.8101234  22.6922488  19.1161704  64.6346474  40.6632948  45.6427717
  64.8806190  40.0273132  46.3145304  65.2343798  40.4894304  44.9172878
  16.5471220  23.9465642  15.5511308  16.1980152  23.3120966  14.9251842
  17.2360075  23.4709334  16.0152900  12.8006530  35.5999255  24.8579264
  13.2962155  35.0592446  24.2428541  12.2949207  34.9726343  25.3746200
   2.4209240  32.3943233  46.9653225   2.7394357  31.5064144  46.8028402
   2.8850383  32.6746607  47.7541447  15.9654582  30.2743053  27.2926927
  15.1804721  30.2557087  27.8401256  15.6384397  30.1556468  26.4009452
  17.0680785  30.1016808  32.2752833  17.5209963  29.9859834  31.4399934
  17.6656902  29.7316742  32.9250431  72.1642399  54.7713614  64.1560411
  71.3374758  54.5726728  64.5956039  72.8249216  54.7002602  64.8450089
  22.1971679  43.4647036  24.2904305  23.1282687  43.2493687  24.2364573
  22.0656919  43.7329388  25.1998234  29.5199656  42.0907307  35.2109814
  28.7563896  41.5135622  35.2185702  30.0461531  41.8016195  35.9564829
  71.6790342   6.3897485  58.7208509  71.5830994   6.9203538  59.5117283
  71.4881229   6.9933176  58.0028772  73.8308191  12.2318840  50.4776144
  73.3520937  12.8107476  49.8843384  74.7506762  12.4615002  50.3458309
  13.5668623  51.4070511  38.0033708  13.1406474  51.7297029  38.7973928
  14.0125823  52.1734238  37.6424789   3.5748795  14.2666435  46.4464045
   4.1954848  14.9693370  46.2532663   2.7645704  14.7199750  46.6790438
  72.5396967  32.9120231  41.9012833  73.2867002  32.8035069  41.3126898
  72.8761864  32.6665330  42.7631044   5.9518844  18.8588071  22.1344042
   5.9316051  19.5216441  22.8246713   6.7332423  19.0692794  21.6231179
  11.9290006  65.8821058   8.0648315  11.3334846  66.0055590   7.3256755
  12.7129710  66.3766432   7.8259754  22.1033239  61.1260462  35.9522748
  21.7924118  61.9904470  35.6832504  21.8691778  61.0648298  36.8783736
  68.7431335  45.7385731  23.4228802  69.1608334  46.5126991  23.8003492
  69.4339514  45.3201723  22.9091263  81.2853432  44.6127605  30.7287502
  80.5592918  44.9901533  30.2320981  82.0435905  44.7048283  30.1518512
   0.9351504  30.1151824  38.4203124   1.4568023  30.9171343  38.4516883
   1.5527545  29.4188261  38.6436677   5.2819216  22.1810699  42.3278141
   4.8068959  21.3507700  42.2933960   4.6102780  22.8331661  42.5275564
   7.5937718  41.1134911  18.0223048   6.8437266  41.2130737  18.6086047
   8.2338691  41.7492580  18.3421564  16.9136167  26.2279463  38.2094979
  17.8113735  26.2269711  37.8774381  16.5251172  25.4295516  37.8519177
  21.1007237  26.8621516  34.8646665  20.7337642  25.9830499  34.9582291
  22.0482254  26.7265105  34.8560357  79.1028214  25.3697395  11.0161591
  78.7202263  26.2392330  11.1337757  78.6885118  25.0311255  10.2224827
  57.3997927  47.2326374  14.7921205  56.6011143  47.4432898  15.2758276
  57.1901274  46.4245272  14.3238974   5.0483000  47.0609379  33.8932514
   4.6058452  47.5379133  34.5953631   5.9745604  47.0861006  34.1333365
  74.7591496  13.5774148  31.2745380  74.3950844  12.8793681  31.8189836
  75.5023813  13.1707537  30.8290434   7.9768044  52.1600485   6.8548822
   7.8717434  53.0565596   7.1734130   8.9242440  52.0315075   6.8094045
  73.5028505  21.5314651   9.7165328  73.3973742  21.2471056  10.6244111
  73.9878464  20.8204436   9.2976540   7.9791290  18.2276046  24.9146628
   8.5189420  19.0163779  24.9663401   7.1194655  18.5435069  24.6364260
  75.2070427  41.0421228  35.5053329  75.7656622  41.5958214  34.9598145
  74.6691799  40.5554056  34.8808002  14.9181092  19.3170547  34.5974541
  15.1797330  19.1391408  35.5008554  15.2907455  18.5937202  34.0933108
   2.3347560  36.4050055  12.9267550   1.8386102  36.9950032  12.3593259
   2.4471119  35.6098866  12.4058020  80.1983833   6.1595368  44.9379873
  81.0938454   5.8477813  45.0690556  79.6955967   5.7457137  45.6395531
  16.9884229  48.6177158  33.7665558  17.5586736  48.9435530  33.0702257
  17.1966934  49.1660833  34.5229602  73.8955069  36.6427875  23.6499238
  74.0930319  36.2826109  22.7853513  73.1849527  36.0937715  23.9814734
  30.6904244   3.8800064  59.9407387  30.4151750   2.9722387  59.8125744
  31.4764214   3.8176069  60.4834604   9.2668247  13.2397223  22.9448724
   8.5236299  13.5225296  22.4120355   9.3170136  13.8867033  23.6485243
   2.8523797   3.5238767  36.9470263   3.6951867   3.8076633  37.3011088
   3.0471253   2.7039263  36.4931703  74.5933199   7.0857263  42.4306631
  74.2848682   7.9418343  42.1337318  73.8455963   6.7096037  42.8950691
   5.5565584  17.0095515  51.7927980   5.5860084  16.9062316  50.8416462
   5.2411950  16.1654699  52.1157551  81.7949390  20.9891772   3.5273388
  80.8651447  21.0286140   3.7513167  82.2076511  20.5816531   4.2887986
  80.1490211  33.7437010  34.9826646  80.4813290  34.5123911  34.5190692
  80.1042843  33.0610347  34.3131924  81.1903477  63.4405804  47.6466990
  81.8237400  63.9503670  48.1518269  81.4928627  63.5120344  46.7413759
  26.3850999  17.0475090  14.8006999  26.5335298  17.7514529  14.1693020
  26.4617157  16.2440729  14.2860615  32.3458719   4.1931999  49.3072796
  32.4111605   3.5875681  48.5689163  32.7104831   3.7083623  50.0477028
  16.3329530  32.3570585  11.8136394  15.8755183  32.9283929  12.4305344
  15.6336391  31.8947363  11.3516307  75.2125359  13.7011027   8.1759346
  74.8885870  13.1971908   8.9225000  75.8538294  14.3031323   8.5534722
  24.9052095  19.3967712  19.1630471  25.6415963  19.0757561  18.6425519
  24.1288900  19.0976667  18.6896634  80.2941227  12.5109744  25.0214434
  81.0606098  12.1797359  24.5534563  80.5893421  12.6069498  25.9269094
  14.9874079  42.9441309  34.2390466  14.5920372  42.5165272  33.4793973
  15.0554240  43.8650608  33.9870572  39.0259647  76.8302965  60.6405687
  38.9464259  76.8365622  61.5944386  39.6486354  77.5311899  60.4475403
  81.2319660  40.2159595  20.0803804  80.6120300  39.8075533  20.6846285
  81.8377972  39.5125580  19.8471045   3.4647599  58.9413691  22.7680469
   3.2107905  59.1288900  23.6716890   4.1306958  58.2579279  22.8433251
   7.4848658  76.4004660  15.1425159   7.9273236  76.4664793  15.9887469
   6.6677040  76.8846369  15.2610862  81.2444782  51.2384319  34.5261455
  80.3859901  51.2859917  34.9468064  81.0912800  51.5481281  33.6334801
  11.4783406  34.4882560  26.9610715  10.9695375  34.0664291  27.6534677
  10.8305573  34.9720788  26.4487004  79.0911055  16.8855894  30.3005123
  78.4334993  16.6108274  30.9394908  79.1558838  17.8335834  30.4160261
   7.2902530  47.2260380  37.2885561   8.1146282  46.8626308  36.9651771
   7.3388928  48.1577253  37.0744967   6.1087435  55.6192780   2.2205442
   5.1923466  55.6367779   2.4964829   6.6014087  55.8359098   3.0121142
  64.4389296  41.8571472  17.5852263  64.7253799  41.5202951  18.4341705
  65.2477455  41.9636202  17.0845103  13.5324585  32.0247912  34.2005038
  13.4142780  32.4810982  33.3674097  14.1223681  31.2995839  33.9948010
  19.9406087  76.5522432  25.2064300  19.3069577  77.2627640  25.3058100
  19.8096144  76.0045004  25.9804130   8.0469298  21.2888718  30.1245999
   7.7388322  20.3848267  30.1879430   8.2359409  21.5413737  31.0283422
  18.0644560  31.0154748  22.9367137  18.7609065  31.3195086  22.3546886
  18.3422065  30.1397943  23.2055402   0.8037920  62.4130154  32.4906206
   1.2730789  61.5862036  32.3793387  -0.1176579  62.1834946  32.3702812
  71.3413525  54.9205399  34.2462063  70.9768772  54.5962858  35.0697660
  70.9748697  55.7997513  34.1518044  81.6884324  44.2814970  17.9422307
  82.5235228  44.7312832  17.8135860  81.2034978  44.8446751  18.5454738
  19.1045940  69.3933105  27.9708934  18.8294840  69.4208670  28.8872933
  20.0584459  69.4656944  28.0048943  74.3406916  35.7513475  35.7821083
  75.0357962  35.6044245  35.1406479  73.6060333  36.0848212  35.2670288
  36.2590098  57.5580740  12.5561547  36.5633774  58.2894754  13.0934143
  35.3042507  57.6184654  12.5881076   3.6476830  43.4105301  22.7707148
   4.0266302  43.4466171  23.6489677   2.7646029  43.0664206  22.9048419
  11.1032760  55.4287481  17.9022765  11.8545008  55.7694340  18.3878934
  11.4839816  54.8236895  17.2657228  23.2281876  45.7500553  19.7751534
  22.5474644  45.0796509  19.7167921  23.9572001  45.3961420  19.2657208
  58.6758852  33.8397503  10.6360590  58.1319571  33.4927320   9.9289858
  58.0553246  34.0533376  11.3328493   7.0483488  43.5320711  39.3108892
   6.9861424  44.2215919  39.9718904   6.8980742  42.7208090  39.7961712
  14.3068898  36.3332272   9.2380130  14.6231151  36.7419553  10.0437260
  15.1017594  36.1260986   8.7465733  68.4091997  62.1286011  39.3087602
  69.1744328  61.9960880  39.8683023  67.7974224  61.4414597  39.5729589
  79.6047735  43.5692453  39.4889116  80.4206276  43.1556511  39.2068481
  79.8443413  44.0599966  40.2750444  31.6416955  58.0877924  39.1621399
  32.1900654  57.4486494  38.7071466  30.7684636  57.9614830  38.7910080
  10.0890815  52.5431061  38.3247161   9.5447087  53.2380772  37.9547071
   9.5256317  51.7693281  38.3199477  66.9686556  16.3784778  25.6545091
  67.1885538  16.4244175  24.7240424  66.0146809  16.4530170  25.6791282
  19.8492146  59.0940571  32.0403695  20.2587795  58.8426638  31.2125468
  20.4902124  58.8507700  32.7083278  18.1999588  46.3756752  32.4181390
  19.0428066  46.4280844  32.8687978  17.7414536  47.1760607  32.6738572
   8.7903696  34.3018579  58.6975145   9.4299531  34.7302055  58.1285810
   7.9408866  34.5577526  58.3381701   9.4183153  32.8410220  43.4156990
   8.6106211  33.3328891  43.2676172   9.5751202  32.3836946  42.5895643
  76.7478657  31.3629079  24.0357232  77.3903131  30.8020329  23.6010814
  77.2378540  31.7869687  24.7402215   8.4670573  62.9088354  24.7488308
   7.7499282  63.4289026  24.3862200   8.6195856  63.2832718  25.6164527
  12.3736966  53.4071732  13.2748091  12.9494464  54.1680145  13.3513820
  12.1990895  53.3324003  12.3366451  21.8484116  26.7069411  13.2570398
  21.4737463  26.0280108  13.8182080  21.3032007  27.4773479  13.4165657
  70.2489424  41.8250942  34.2437148  69.9251652  42.0115232  33.3624387
  71.0125685  41.2649107  34.1048074  77.2710705  54.3941450  48.5456705
  77.9648829  55.0506449  48.6077929  76.8107653  54.4521713  49.3829155
   5.2211988  33.4171653  29.9342704   4.4302520  33.5089827  30.4655004
   5.7280648  32.7353430  30.3752208  18.8985503  45.9922838  21.0082698
  19.2888236  45.6549788  21.8145871  18.5084748  45.2240038  20.5913544
  11.6109931  52.9395294  15.9646893  12.4581587  52.5837231  16.2329113
  11.7279899  53.1671238  15.0423312  19.3228877  37.1737432  25.9087992
  19.2254174  36.2356424  26.0721993  18.9286506  37.3090005  25.0471067
  79.4559669  48.7477922   7.0738792  79.7780991  49.0339565   7.9286152
  78.5327196  49.0004158   7.0690310  16.8088114  46.7437220  24.6421838
  17.7408767  46.5573692  24.5292306  16.4063835  45.8844948  24.7687149
  35.8696508  68.2150888  48.0983067  35.4982996  68.7619591  48.7905931
  35.1402426  67.6669884  47.8088474  20.0953293  61.5590858  28.5145140
  19.2402697  61.2313414  28.2357860  20.0996923  62.4772596  28.2440114
  76.4419937  45.2236795  28.5771585  75.7818508  45.0963593  27.8958154
  75.9365273  45.4058313  29.3693423  80.0445461  45.1499891  42.3312330
  80.1717281  46.0893059  42.4644136  79.7308016  44.8285532  43.1764984
   5.8099592  63.2079411  28.1195617   5.1655632  62.8361654  27.5172567
   5.3767884  63.1927729  28.9730048  17.4223888  23.0493474  32.8002620
  17.7375138  22.5999522  32.0160604  16.4878953  22.8449011  32.8342533
  13.4074581  32.6477575  26.3605070  14.0912259  32.8247309  27.0065522
  12.7134717  33.2732391  26.5688062   6.4833361  52.5729179  39.0989113
   6.6404760  53.2114458  39.7944832   5.7705158  52.0273066  39.4312143
  22.0196199  58.5140705  33.6704659  22.4232101  59.1930866  34.2110991
  21.8959761  57.7753639  34.2664981  29.7166133  10.0528347  41.6954851
  30.3361320  10.4284489  41.0699129  30.1460338  10.1497865  42.5454426
  13.5079491  54.8453093  29.4449353  13.6232591  53.9541626  29.1150975
  13.9597726  55.3972864  28.8066506  17.2711146  69.9693108  45.8356619
  17.8995955  69.3870544  45.4087925  17.4662399  70.8356190  45.4783583
  10.2869880  26.0454750  13.1043184  10.7440996  25.7950449  13.9071667
   9.6906883  25.3170276  12.9310477  13.6857820  37.0246148  28.8912868
  12.9992473  37.6330900  28.6180472  13.8136506  36.4523625  28.1347084
   6.5469742  46.8332195  57.8546429   5.9232569  46.3621378  58.4071732
   7.3917443  46.7087412  58.2871914  15.9213650  46.0699415  37.9596543
  16.4622879  46.5309715  38.6008143  16.2927973  46.3153315  37.1122718
  52.5811625   7.0436919  54.6572304  53.1704473   7.7857250  54.5217276
  53.0861521   6.4314026  55.1923180  19.3506551  41.8547726  24.5705914
  19.8756361  41.0742760  24.7479534  19.8491335  42.3332739  23.9081812
   7.3555195  32.6733828  34.3053055   7.5611877  32.3496675  35.1823115
   8.1731832  33.0632854  33.9960575   9.4893056  53.8107347  51.2790346
   9.2165726  52.9104328  51.1021090   9.3900222  54.2603731  50.4398680
  30.7259989  60.8872032  37.1758986  29.9898171  61.1848354  37.7103925
  30.3570056  60.1995087  36.6216826  27.8034472  61.2162638  60.8522701
  27.9129004  60.5042171  61.4825439  26.9549799  61.6015387  61.0711336
   1.8389848  31.6006660  19.4802773   2.7362603  31.4783263  19.1701770
   1.6970319  30.8794308  20.0933862  23.5122800  56.9555807   8.8099343
  22.8107595  56.3061190   8.8578653  24.1503239  56.5748596   8.2064587
  68.4130907  41.8324471  23.4435177  68.6292744  42.6298714  23.9268517
  68.2045507  42.1368265  22.5602865   7.7048641  23.2642722  22.7342772
   7.5192297  22.6865816  21.9939780   7.5728732  24.1469359  22.3882747
  19.3888259  32.0926189  32.7500296  19.5439148  32.7125263  33.4626961
  19.2011952  31.2636280  33.1902575  12.4041605  58.4820747  34.3566704
  12.8998303  59.2243862  34.7023845  12.9774332  58.0998945  33.6921906
  25.8130050  53.2839632  26.8209910  25.2897692  52.9670334  26.0847759
  25.1721382  53.6513853  27.4296975   7.0110697  68.6532593  17.1305072
   7.7206957  68.3452082  16.5667999   7.4517155  68.9687347  17.9195189
  14.0585601  45.0626373  13.5209346  13.7027335  44.7027063  12.7084887
  14.9655974  45.2825499  13.3084393  64.9370098  41.5342617  20.2462578
  65.5385685  41.0035753  20.7684946  64.0680265  41.3063717  20.5766582
  18.3585346  51.6061783  13.8930047  18.6287487  51.6137409  12.9747677
  18.4770691  52.5100136  14.1850030  13.0749297  63.4521723  37.1258783
  12.1611977  63.4871387  36.8428564  13.5794699  63.5169744  36.3150334
  74.5984411  27.8175497  16.2529075  74.9440145  28.0167031  15.3827643
  73.7114525  28.1773233  16.2464607  16.4103436  30.5872083  35.4673719
  15.4832590  30.3989291  35.3214431  16.4118087  31.3617730  36.0297585
  18.8086021  61.4795399  32.3372984  17.9080236  61.2285852  32.5427556
  19.2708850  60.6480026  32.2320795  37.9396224  52.0541811  22.1605277
  38.0923080  52.9568577  21.8810797  38.1681681  51.5249777  21.3963675
  18.4893429  36.9830012  17.5162685  18.4648657  37.9303789  17.6508451
  19.3432212  36.7148495  17.8557062  81.2650490  55.3195429  34.9146438
  81.0473537  55.9454632  34.2239451  80.4936886  54.7564793  34.9794316
  19.5609605  59.4304562  35.5941582  19.7664154  59.0044212  36.4263320
  20.2803731  60.0466871  35.4565310  17.0298314  40.3197670   9.9500471
  16.1683285  40.7347012   9.9933535  16.9358122  39.6418858   9.2808187
  31.4991927  76.9713068  51.2812948  30.6149030  76.6288185  51.1510420
  31.7734432  76.6117525  52.1249390   3.1740776  32.3907876  27.4972248
   3.8069814  32.8126717  28.0783272   2.7127874  31.7670584  28.0579424
  30.4782581  41.6088772  23.1772828  29.7208381  41.6933727  23.7564254
  31.1979342  42.0106030  23.6640239  30.2677560  48.8771534  19.6611440
  30.7917595  49.5326662  20.1215339  29.3920875  49.2607880  19.6136129
  37.3922348  56.3202143  22.0686746  37.2853279  56.5425634  21.1438179
  36.9727588  55.4646158  22.1593523  14.9118292  56.6014338  27.8544378
  14.0608847  57.0160532  27.7122569  15.3633535  56.6872501  27.0147991
  43.5687780  58.0268717   5.1393557  43.2126904  58.6242390   5.7970667
  43.0251217  58.1716537   4.3649465  22.8191686  25.4543233  29.0570140
  23.0647969  25.3625751  28.1364274  22.0374680  26.0065579  29.0424442
  18.9774597   0.8996096  32.8902936  18.6823547   0.3194378  32.1884775
  19.8080409   1.2549770  32.5739384  13.3895695  57.2650242  57.3370743
  12.8382027  57.2591066  56.5546465  12.9817748  57.9121399  57.9125547
   7.2997618  48.8819838  29.6823096   7.4031240  48.3603573  30.4782081
   6.5651852  49.4655848  29.8721433   3.5499233  42.8403234  56.1687756
   2.6946718  43.1152821  55.8383560   3.4196180  42.7335072  57.1110296
  33.3765721  12.6503193  31.0992122  32.9632163  12.9543686  30.2911758
  32.7021885  12.1254361  31.5304184  76.5510273  49.5885229  18.6403930
  76.9189978  48.7051249  18.6612797  77.2440434  50.1276970  18.2592762
   0.6030568  61.1783314  40.1569366   1.4694944  61.2753725  40.5520296
   0.0145310  61.0451841  40.8999968  18.2008517  60.8290339  62.1920967
  18.3031583  60.1869583  62.8945923  19.0966618  61.0507488  61.9379330
  10.0424290  67.7165127  25.0269222   9.2833155  67.1697474  24.8243737
  10.7376194  67.3801231  24.4614291  29.0012789  50.4601336  21.4642072
  28.1189799  50.3007936  21.7994547  29.0002465  51.3849020  21.2171674
  22.9505491  39.8946333  12.6689279  22.5651979  39.5867348  13.4892547
  23.1189656  39.0960312  12.1688235  17.0120442  47.2046709  15.0757408
  16.8652248  46.8050432  15.9330475  16.1798799  47.6269579  14.8626566
  73.8540030  62.2604561  17.9530215  74.0736055  61.4384222  18.3914971
  73.9132977  62.0572615  17.0195198  76.7152977  54.8912096  55.5130577
  76.9014168  55.8014727  55.2828026  76.6016960  54.9029732  56.4634228
  19.1075385  58.0517292  42.3240089  19.6249294  58.2356739  41.5399790
  18.8675046  57.1287966  42.2414875  14.0011692  36.0210633  15.2868116
  13.7338686  36.9015217  15.5505848  13.6127961  35.9024477  14.4200194
  16.0616982  54.6740007  17.3655391  16.7198730  54.4097710  18.0083621
  16.5591061  54.8255157  16.5618849  25.9752584  41.0842800  23.4148741
  26.5016103  40.9742498  22.6229906  26.6117597  41.0687685  24.1296148
  32.3019576  39.5077705  39.1861749  33.1862116  39.2470288  38.9286113
  32.4139094  39.9210167  40.0422859  19.4866419  56.3977957  16.6650832
  18.9752269  57.1080780  17.0526183  19.6800423  55.8140516  17.3986173
  18.9833283  38.8718700  29.6818066  18.7371731  39.3907142  30.4475999
  19.9361908  38.7998796  29.7374916  17.2740364  37.9182458  23.8644075
  16.9923913  37.9692483  24.7778106  16.9327772  37.0791602  23.5550380
   9.4702429  49.4113207  47.1179867   9.3891430  49.8927069  46.2946272
   8.7267697  49.7077513  47.6429701  81.3317966  49.2601633  25.0100327
  81.9548607  49.3693304  25.7284331  81.8630505  49.3408346  24.2178869
  56.7354536  16.0322642   0.0770813  57.2468710  15.2273798  -0.0056785
  57.3747349  16.6969204   0.3335668  79.6820688  66.6109800  32.2297072
  79.6711302  66.2136650  31.3589311  80.5689812  66.4537621  32.5535870
  25.5086780  11.4470470  54.8356199  25.7734156  10.9964061  54.0337086
  25.0686932  10.7737732  55.3546095  63.8820124  62.5120831  42.2362423
  63.0472136  62.0535946  42.3318052  63.8368559  63.2267284  42.8714371
  27.8717721  50.7645319   0.0322952  28.6410877  51.2323592   0.3571405
  27.3362995  50.6141064   0.8113184  71.6221333  32.8052163  28.3611536
  71.9854975  31.9383574  28.5421300  70.6845999  32.6521468  28.2435489
  20.2443624  64.5091438  18.2691717  19.6813583  64.7563505  17.5355864
  19.6383882  64.2001247  18.9426208  80.4552078  46.6752863  19.2543733
  80.5604267  46.4095545  20.1679087  79.5199108  46.5695667  19.0803850
  29.8096681   7.6403069  51.3355875  30.5957770   7.0944232  51.3521671
  29.4022560   7.4479425  50.4910517   8.8320404  47.8037596  60.4411602
   9.0594721  46.9400167  60.0969839   9.4399506  47.9396582  61.1679411
  77.7661657  23.0940533  11.8255365  77.2682285  22.9266763  11.0253668
  78.2652617  23.8883781  11.6353130  24.2107081  47.7304602  27.2285557
  24.2508578  46.9324493  26.7014861  24.8985481  48.2902575  26.8683672
   9.9048615  15.0210667  14.8362720   9.9245656  15.6164324  14.0870178
  10.1655722  14.1735756  14.4756866  68.7706423  67.0592260  17.2886586
  68.5863638  67.0689535  16.3494146  69.3894339  67.7778339  17.4187839
  80.5687046  25.9221077  61.5047216  81.2673473  25.2902150  61.3348961
  80.9744549  26.7751312  61.3499641   2.1400295  24.1355753  24.6781898
   3.0671236  23.9674616  24.8469114   2.1345483  24.6766353  23.8885975
  71.3413143  53.9993143  50.4711056  70.5640221  53.8905716  49.9231815
  71.4000654  54.9432182  50.6188488  35.6853557  53.8417625  24.7157669
  35.0288033  54.5252705  24.5816398  35.2061725  53.1289721  25.1383114
  71.1222887  60.8913040  33.9059305  70.5114365  61.0539484  33.1871557
  71.5006638  61.7494249  34.0975022  76.1589432  57.1844244  25.5110240
  75.2827787  57.5596619  25.5991554  76.0060835  56.2833261  25.2266097
   5.6936073  31.7711473  46.1437464   5.0233483  31.6204810  45.4771996
   5.2569497  31.5717101  46.9718695   8.1575084  65.2782440  26.3660932
   7.7877206  65.9160233  26.9766068   7.9931110  65.6521320  25.5004072
  81.0436916  26.5564728  31.5412593  81.1982346  27.4539042  31.8361521
  80.5483532  26.6535568  30.7279634  71.8883085  51.1530733  44.4636011
  71.1701775  51.5900993  44.0058613  71.5761662  51.0580778  45.3634739
  37.2857404  31.7256832   0.6567607  36.5067267  31.2860441   0.9974726
  38.0190730  31.2281847   1.0186316  14.0134561  70.7734871  24.0637398
  13.6012292  69.9097347  24.0484476  14.9500775  70.5933380  23.9830065
  23.1202888  40.7032156  26.7728233  23.0649281  41.3421440  26.0622334
  22.3541212  40.8837318  27.3174620  14.8978174  21.7835116  33.3001447
  14.7068119  22.5050688  33.8993979  14.8411012  20.9984255  33.8448071
  18.7013531  33.9092135  20.6139898  19.5128644  34.4046450  20.5034018
  18.9516044  32.9999638  20.4500604  17.9013181  64.0946579  35.5108190
  18.8486433  64.0013885  35.6113529  17.7894282  64.4791269  34.6413946
   9.8609149  52.3250628  31.2965369  10.2895844  53.1756878  31.2021732
  10.5629230  51.6873932  31.1669421  13.1554091  45.1202440  27.8674364
  13.5756254  45.3014803  28.7081552  12.6482379  45.9096432  27.6780677
   1.5346357  32.5748205  56.3441420   1.4866443  32.1382141  57.1946144
   1.6473566  31.8622017  55.7150984  73.7960529  53.6369133  33.5299015
  72.9924011  53.9420509  33.9509392  73.4939480  53.1275368  32.7779078
  12.1892405  24.2486858  44.0990877  11.4829004  23.9448595  43.5289955
  12.7772546  23.4970427  44.1732693   8.1257564  48.2609415  27.2091246
   8.0924636  48.7982798  26.4176726   7.6610601  48.7764406  27.8683281
  14.2324805  69.1731405  15.8572435  14.7569156  68.3842611  15.9946179
  14.2565465  69.6265030  16.6999280  18.7522173  40.8083057  18.7147284
  19.1142547  40.7402658  17.8312516  18.0043101  40.2109241  18.7137532
  80.1168346  60.5086994  41.2854099  79.1897297  60.3622723  41.0976458
  80.2520180  60.1138830  42.1468496   9.7636908  51.9594383  27.9292774
  10.2798104  52.2104788  28.6953259  10.3188074  52.1838188  27.1824622
  22.3001504  33.2415891  26.6851091  22.2146249  32.8026605  25.8387876
  22.6777744  32.5777507  27.2621250   3.6150208  24.6278310  43.2339334
   3.9235842  25.1601911  43.9671564   2.6721489  24.5461941  43.3773232
   3.7948215  54.4930410  31.9876528   3.7188151  55.4389524  31.8623209
   3.3745474  54.3287516  32.8318167  32.2791982  37.6730227  32.3357868
  32.5684929  38.5544300  32.5717163  31.3674879  37.6347852  32.6248384
  25.0004888  22.7995420  33.8187766  25.7929707  22.7326202  33.2861185
  25.2064204  22.3126364  34.6167397  32.0736742  48.7083054  25.4827404
  31.3931465  48.0464172  25.6053114  32.0859981  49.1946650  26.3070774
  17.0199871  53.3482885  11.5920234  16.4232016  54.0954208  11.5486968
  16.5501487  52.6405573  11.1508894  35.4877234  47.6877403  30.5888796
  36.3396049  47.3919868  30.9099150  34.8721361  47.0214653  30.8944368
  16.0165048  33.6105871  27.0732498  15.8070815  34.5348978  26.9389963
  16.3933921  33.5756469  27.9524374  23.7629676  42.6406908  17.4030244
  24.0536952  43.5285330  17.1945989  24.1175389  42.4712563  18.2758391
  27.7440476  17.3844862  36.7546701  27.3559403  16.6746521  37.2662759
  28.2926202  17.8581667  37.3799109  29.7224402  37.6583171  33.1816411
  29.6461225  38.3370996  32.5110745  29.4247293  38.0822587  33.9865494
  23.3871651  23.6327219  17.9891598  22.5648594  23.2128072  17.7367342
  24.0600276  22.9826927  17.7867985  77.2527838  49.7015285  29.3848681
  77.3785210  49.2631149  30.2264237  76.9625378  49.0067577  28.7938643
   0.5639156  53.7626791  14.2699242   0.9592373  52.9669189  13.9139533
   1.1643374  54.4631577  14.0148652   7.0522976  35.7782531  20.9568119
   6.5486056  36.4996266  21.3338375   7.3766136  36.1219549  20.1243925
  35.8355570  19.2355728  23.3799577  36.6833425  18.8373089  23.5771322
  36.0446095  20.1393175  23.1437945  18.0401790  68.9988565  18.5241687
  17.7549195  68.9975452  17.6104641  18.9955783  68.9641285  18.4768558
   8.5432482  49.0578079  20.4848909   7.9550081  48.8019276  19.7744453
   9.3574965  49.3026161  20.0452304  80.4877853  29.0163732  32.4189973
  80.5034351  29.5265603  33.2287478  79.5718527  29.0353465  32.1416187
  15.8165348  23.6168814  37.1601939  16.2052977  22.7834320  36.8947577
  15.0893605  23.7466478  36.5514159  16.6412151  29.2356586   4.3978995
  16.1271405  29.3672538   5.1945436  16.3002694  28.4229779   4.0243497
  41.3286495  69.4086742   8.9388859  40.5015135  69.2817736   8.4741497
  41.7654371  68.5585260   8.8869375  15.1896381  41.8376875   0.9135690
  15.1369476  42.5201035   0.2444186  15.8671224  41.2413836   0.5947121
  14.1953123  70.2429914  34.6558714  14.2363954  69.8327637  35.5197358
  14.4177520  69.5396471  34.0459037  40.2728844  59.7039843  33.0049610
  40.2156448  60.1753187  33.8361049  39.4949484  59.9788380  32.5196767
  29.7035861  23.7113214  25.3938746  29.2013955  23.6017895  24.5863867
  29.8035336  24.6587110  25.4871225  19.6129107  23.5054111  39.5512867
  20.1284456  23.1373477  40.2689123  19.1549540  22.7536774  39.1752505
   7.7795184  41.2353897  14.5033836   8.3520788  41.9267368  14.1710472
   8.1161487  41.0459948  15.3791928   3.8942546  47.1610785   2.7765915
   3.2515454  46.5503931   3.1374526   4.2665076  46.7003870   2.0246460
   9.0486789  47.7557135  23.3514452   9.1724074  48.4008121  22.6551914
   8.1015164  47.6227045  23.3891678  16.3376069  60.8352566  12.3658621
  15.5445659  60.7190895  11.8425810  16.0206497  60.9235525  13.2647359
  79.3010473  40.0795698  25.4768300  78.9093971  39.4926023  26.1235976
  79.7004747  40.7767963  25.9969926   5.8709407  59.8354197  29.0215778
   6.2467998  60.2495193  28.2447362   5.0198251  59.5081758  28.7304616
   1.0229798  35.8391285  59.9931002   1.8466085  35.4699326  59.6744108
   1.2762278  36.3783169  60.7423449  29.3760133  46.8394518  31.8322372
  29.2931342  47.6109409  32.3927426  29.8141861  47.1616220  31.0445571
  10.7711589  64.8524666  27.8209305  10.9574199  65.4056978  28.5795307
  10.0294805  65.2778578  27.3905945   7.7991247  66.6740513  24.0753460
   7.6457781  67.5555229  23.7351632   7.4925566  66.0922241  23.3798456
  71.3089418  36.4026952  31.1617732  71.4595890  36.7842150  30.2969146
  70.6891870  36.9990015  31.5819550  11.1238110  54.9445391  45.5656910
  11.6240907  55.5720377  46.0874176  10.2209795  55.2588654  45.6139326
  13.0166411  75.7256651  35.1858616  12.4266660  76.3865376  34.8233628
  13.8821375  75.9727287  34.8601222  24.3019867  38.9338040  23.6469555
  24.5866513  39.8419452  23.5445952  25.0456548  38.4947777  24.0598059
   9.6953613  35.7944345  33.1622005   9.6425784  35.6219482  32.2221494
   9.5812780  36.7417312  33.2386708   3.8868180  12.0404804  18.4475327
   4.7801164  12.1399069  18.1183445   3.3842897  12.7092397  17.9822826
  80.5247784  70.5103302  25.6718183  79.8648405  70.3141880  25.0068045
  81.3590717  70.4497337  25.2065134  77.7075815  57.8976536   2.0267470
  77.2630024  58.3782530   1.3284618  77.0232153  57.3534107   2.4162015
  36.1101365  63.0134869  30.6787539  36.2151790  63.9184380  30.3850436
  35.8402276  62.5367260  29.8938489  33.3291125  51.0519886  18.7988877
  33.3350873  51.9448900  18.4540367  33.7567472  50.5301332  18.1198978
   6.2546796  41.4238262  61.9881392   6.1956304  42.1170282  61.3307047
   5.9151185  41.8235683  62.7888489  28.5530210  75.1770306  37.7636266
  27.6323628  75.3457785  37.9639840  28.5304475  74.6140194  36.9898415
  38.6991167  63.3338690  37.5535011  37.8146982  63.6691570  37.4064684
  39.2691660  64.0880871  37.4037337  45.7697296   7.0356750  13.4804630
  44.8414660   6.9767469  13.7064707  46.0582590   7.8625917  13.8667178
  29.6096849  65.0900316  29.7688937  30.0954819  64.7479773  29.0184045
  29.5347738  64.3451643  30.3653789  23.4708977  70.8763742   0.5623033
  23.4829783  71.6762400   1.0879458  22.9663777  70.2535295   1.0855214
  21.4783764  54.1426659  30.2750111  21.4540577  53.5363483  29.5347285
  20.9379411  54.8821115  29.9968266  23.7691307  31.7723513  22.9185677
  23.5490489  31.5876579  22.0055056  23.5833836  32.7052212  23.0257273
  40.2031898   6.4343625  20.2864361  39.4595766   6.1453527  20.8153415
  39.8926783   6.3733304  19.3830597  27.0641446  45.4759312  31.5103459
  26.5987492  45.6585169  32.3266196  27.9530787  45.7955647  31.6648102
  24.6457815  71.3464403  28.0640793  24.8664784  71.5385103  27.1526885
  24.0522695  72.0522404  28.3206487  72.0722198  11.8849838  56.1601067
  72.8142214  12.4639058  56.3347960  71.3030148  12.4473274  56.2513399
  36.5783978  26.7925262  26.5759230  36.4782286  27.5432992  27.1611905
  35.7137632  26.6795802  26.1811066   8.2012707  60.2580976   9.9395412
   7.3662603  59.8423147  10.1542807   7.9767162  60.9257078   9.2913866
  49.6957541  64.2375612  20.1348042  50.6132269  64.1861773  20.4028273
  49.4947481  63.3636618  19.7999537  15.6661475  61.1639690  29.6943593
  14.8643541  61.6430712  29.4850326  15.4121721  60.5684614  30.3994155
  35.2781081  16.7700076  15.2822125  34.8252678  17.2430193  14.5840514
  34.5778561  16.3417900  15.7746637   1.6624102  69.0998602  34.6813083
   1.5161918  68.2514524  35.0997043   2.1927579  68.8984728  33.9103293
  33.9527535  62.9921579  38.0956697  33.8153958  62.0850515  38.3686709
  34.6786809  62.9476786  37.4733496  12.9004896  42.4940729  14.6381283
  13.2925141  43.3613110  14.7403288  12.4670947  42.5261307  13.7852669
  54.1939163   1.1384272  41.8749285  54.6324825   1.5405305  41.1251307
  53.2961226   1.4676219  41.8321037  71.6400051   0.2204918  42.5558186
  70.7895803   0.5710503  42.2910213  71.7672205  -0.5465715  41.9975471
  21.9569016  66.6628265  30.8144379  22.3834920  65.8395672  31.0521245
  21.1131597  66.3982773  30.4479074  39.5396161  70.8418226  22.8284717
  39.2074013  70.3970480  22.0486999  40.0382948  70.1698875  23.2932878
  34.6572018  63.1626081   4.0611333  33.9362836  63.7921143   4.0763742
  35.3502464  63.5797119   4.5729387  42.2210121  64.8721266  23.3744669
  41.8045902  64.9965143  24.2273140  41.9051933  65.6041193  22.8446817
  68.8735342   9.8333508  56.1573219  69.3616772   9.8712248  55.3348160
  68.2681799   9.1007382  56.0430574  33.7193561  59.2881012  25.6828332
  34.0087080  59.6152544  26.5345836  32.8944063  58.8387108  25.8665228
  29.7906446  44.8132133  28.1403637  30.3399301  45.5933857  28.2168293
  29.7863674  44.6141291  27.2041059   7.8342098  57.5802326  16.8412590
   7.9235077  56.9028425  17.5116336   7.2042722  58.1998682  17.2093034
  28.1191111  41.1256504  21.5620732  27.9784608  42.0723248  21.5779805
  29.0707850  41.0245609  21.5801835  18.2662320  68.1456280  39.1932559
  18.3426738  67.5876760  38.4192538  19.1118813  68.5901403  39.2525411
  28.5781622   1.9144844  49.3421698  28.2700706   2.5582319  48.7042809
  29.3846321   2.2921404  49.6931839  16.0807955  66.0599422  48.7294674
  15.4564810  66.1390829  48.0082178  16.8989491  65.7937670  48.3099318
  16.0460281  60.8504820  25.8937430  15.1981246  60.6292009  25.5086112
  16.5777159  61.1397982  25.1522326  50.2612686   0.9668175  36.8686366
  50.2643919   1.4684638  36.0534239  50.5409479   0.0885411  36.6104841
   6.2784910  57.9659128  24.9363041   6.0801446  57.0294857  24.9347639
   6.7424238  58.1138277  24.1122174  35.7009840  54.4370365  21.2755704
  35.7773566  53.5147381  21.5200257  35.6735229  54.4297457  20.3187919
  36.8882585  61.2336254  17.4165571  36.7586732  61.7037487  16.5928912
  36.0125256  61.1733103  17.7982473  26.9657969  62.9173517   7.6941031
  26.3273239  62.9846573   6.9841373  27.6477313  62.3409986   7.3491150
  37.6458549  14.6348584  21.5459490  37.6232338  15.2774608  22.2550201
  38.5023713  14.7593307  21.1371469  27.0548987  57.5081062  20.6855106
  27.2404408  57.9399252  19.8516417  26.1012864  57.5368690  20.7631564
   3.4549567  41.0206127  33.8903093   3.0379710  40.7296228  34.7012830
   3.6138812  41.9549322  34.0245771  23.6047339  56.8480539  18.8720274
  23.7409687  56.8431187  19.8194695  24.4830370  56.9458532  18.5042632
  37.6115394   5.2987587  26.4758921  38.1223631   4.4914126  26.5348959
  37.9743409   5.8622301  27.1593428  16.7823660  54.7392178  49.6594095
  17.0097470  54.8955345  50.5759764  16.5149903  53.8205194  49.6322918
  19.9118233  70.4243279  33.7455869  20.8588862  70.4216194  33.8845015
  19.7540581  71.1844301  33.1855965  36.8460393  61.4911842  23.8416052
  37.2326231  62.2811031  24.2195106  37.3110628  61.3693619  23.0138707
   8.0598390  61.7769575  28.8435769   7.4549800  62.2911835  28.3088350
   7.4982697  61.1639690  29.3180418  33.2731295  60.2064753  38.2070565
  32.6799226  60.2220058  37.4559927  32.7733183  59.7718334  38.8980770
  13.2661819  60.5460024  32.1274400  12.9379928  59.8867369  31.5159774
  12.4833798  61.0141277  32.4178076  42.6302958  68.4026384  28.6284065
  42.2624063  69.2840767  28.5655570  43.5601473  68.5433531  28.8067436
  48.3208656  59.0463734   8.1219429  48.1685257  59.4593811   8.9719129
  47.5274658  58.5367012   7.9576689  42.4751902  71.1385441  19.3538129
  42.0646238  70.8933926  18.5246170  43.4080076  70.9727383  19.2174435
  28.2208681  29.3064904  11.4371538  28.7461519  29.1899061  12.2288084
  27.8615975  30.1901913  11.5160859   3.3248854  57.7001333   5.2455229
   3.6203128  56.8799210   4.8502910   2.4546498  57.8451395   4.8741809
  33.9799190  71.6554976  47.4865294  33.3223772  71.0988951  47.0693159
  34.3259573  72.1927643  46.7739058  27.1196532  45.8908892  25.6074309
  26.2141728  46.0184240  25.3244638  27.0457625  45.4841328  26.4707518
  36.4635468  46.9101048   4.8468170  37.0304894  46.1721325   5.0708789
  36.4525151  46.9217110   3.8897508  15.7601702  28.4817004  62.4881935
  15.5376339  28.3742380  61.5634441  15.3705919  29.3212676  62.7323008
   1.6563450  58.1846380  14.1336489   0.8524959  58.5853100  13.8027108
   2.3515525  58.5620499  13.5946882  46.5451765  63.7691593  17.8647935
  46.7512608  64.0967941  18.7402463  46.0194111  64.4630957  17.4669814
  51.3599873  66.4253473  66.3940954  51.7899323  66.2015581  67.2195053
  51.9370747  67.0744228  65.9917259  24.4540310  45.3969574  17.0712364
  25.3448868  45.1874256  16.7906880  24.3722653  46.3393688  16.9249344
  38.4722900  57.5518036  34.4221115  38.9055777  57.3344612  33.5967302
  39.0889120  58.1299019  34.8713446  22.4657607  33.2024717  36.5276265
  22.7579188  33.1116819  37.4346185  23.2751799  33.2511353  36.0189986
  44.8742056  73.0065632  37.7850056  45.6440163  73.3379459  37.3226094
  45.2297258  72.4178743  38.4508014  39.7832799  59.2021227  27.5977302
  39.1257119  59.7143221  27.1271038  39.6009111  58.2950306  27.3524547
  20.8783340  67.7911186  19.8243320  21.6521120  67.4036884  19.4151914
  20.2158451  67.1013451  19.7849393  27.3713756  53.8946247  22.7339053
  27.3778248  54.1238832  21.8045855  28.2907391  53.9358759  22.9971576
  46.0024738  70.5280447   9.6499020  45.8502436  70.4989624   8.7053311
  45.4878235  71.2762356   9.9525225   6.5494108  59.0542221  31.3860202
   6.1750066  59.4822550  30.6160593   6.3662887  59.6561193  32.1074224
  33.2836914  60.8683538   0.5573220  33.2393336  59.9143219   0.6212288
  32.9602981  61.0648012  -0.3219152   1.4753617  51.9587421  39.1160226
   0.7511099  52.3404980  38.6200881   1.0881168  51.7161989  39.9571228
   6.6321790  52.7075768  22.9657125   7.0597446  51.8555260  22.8795266
   5.8436173  52.5291109  23.4781122  13.5180366  73.8179779  28.0929112
  13.9027381  74.1877699  27.2982478  13.2551074  72.9324436  27.8420496
  13.7141132  24.5438361   4.0101501  13.6450779  24.7608566   3.0804357
  14.6557200  24.5017576   4.1770011  74.2358780   9.9740070  47.4957228
  73.5821438  10.1091373  48.1817293  74.7000408  10.8092356  47.4393272
  27.0609713  65.5211735   8.6501002  27.9278517  65.8214760   8.3770335
  27.0475101  64.5911264   8.4241283  23.4741592  60.3919363  31.7258406
  23.9572430  60.7530165  30.9825468  22.7955222  61.0416937  31.9088578
   4.8436880  40.8285093  44.0361834   5.1676214  40.9361124  44.9304533
   4.9746293  39.8999667  43.8441086  15.4018819  44.4150591  25.1324320
  14.6031034  44.0974236  25.5534911  16.0143650  43.6823177  25.1971030
  25.4168105  57.8957987  42.9055786  25.2073598  57.4090147  42.1084547
  26.3497448  58.0948305  42.8265095   9.7460842  70.0344419  40.6943560
   9.2360598  70.5818319  40.0973034  10.0124478  69.2841816  40.1629543
  15.8473670  58.8072205  23.5336876  15.3282273  59.1976690  22.8306413
  16.7546463  58.9986897  23.2961726  61.9085884   3.6243126  24.7472811
  61.0171175   3.2770076  24.7770905  62.3117113   3.3194539  25.5601692
   9.2939323  66.0743952  35.9779739   9.8666036  66.8278742  35.8346200
   8.9001024  65.9065628  35.1218414  10.2300167  72.2812080  23.8785219
  10.3053248  71.4377356  23.4322977  11.0872185  72.6910114  23.7623405
  10.3918660  11.4152968   6.1828130   9.5982498  11.8248820   6.5272599
  10.4023170  10.5435181   6.5779412  30.9452605  72.5796700  13.9341247
  31.5326929  72.1135426  13.3392477  30.5046844  73.2237387  13.3797789
  27.4821281  68.9343023  42.9902744  27.4979210  69.3527365  42.1295214
  26.8344402  68.2347298  42.9046583  30.8386159  63.6473131  38.1540775
  30.6832981  63.0629969  37.4119949  30.9548235  63.0601358  38.9010382
  46.3164377  33.0628800  19.7122288  46.9718027  32.8374743  20.3724694
  46.8012094  33.0720234  18.8869154   6.7740566  65.0441551  22.0817971
   6.9764775  65.8951569  21.6931367   6.9362104  64.4151115  21.3787746
  41.2797785  63.1502914  34.4603729  40.5455637  63.7643290  34.4712305
  41.2407207  62.7455425  33.5938382  20.6918001  64.3819761  28.3546925
  21.2021279  65.1478529  28.0915761  20.1119924  64.7058010  29.0440345
  24.6400952  39.1822743  20.5758452  25.4697442  38.7658048  20.8092237
  24.3140244  39.5447826  21.3995552  21.3275719  67.1394062  27.5771379
  22.2450709  66.8832636  27.4832273  21.3557506  68.0870628  27.7089882
  30.0575995  56.2327337  26.3022351  30.9674788  55.9355307  26.2977886
  29.5437193  55.4325247  26.1934900  24.7543049  47.9506302  16.0471082
  25.3193164  47.7814388  15.2932060  24.0193009  48.4481668  15.6887007
  37.4580908  66.4313269  35.7096696  36.6740608  66.0462093  35.3182435
  37.7068782  67.1323824  35.1072955   7.2391546  74.5472383   4.1436896
   7.7976495  74.6609735   3.3746779   6.5204936  75.1654911   4.0113279
  20.3687644  56.3258600  27.1063495  19.4176352  56.2184334  27.1129537
  20.6661534  55.7821131  26.3768744  32.2852635  63.8392925  35.6046057
  31.4144659  63.4831715  35.4281998  32.3637581  63.8186836  36.5583587
  45.5204058   9.2189080  32.3005462  45.1535463   8.9775312  31.4500284
  46.2828207   9.7573870  32.0884204   1.0011584  11.6166711  24.5827389
   0.9877238  12.1014237  25.4080057   1.9308540  11.5231228  24.3750191
  15.4010308  61.2907505  14.9000144  15.4743099  62.2086716  15.1613235
  14.6459806  60.9623098  15.3881311   7.1612847  31.2905788  38.9879584
   6.8284309  30.6603026  38.3490610   6.3763875  31.7014575  39.3503785
  30.0605392  61.3189077  49.4679356  30.5890036  60.7571983  48.9009762
  29.1802025  61.2756205  49.0946198  32.0802879  56.8768406   2.7106082
  32.1037936  56.7617846   1.7606393  32.7746081  57.5101662   2.8924143
  13.6502576   1.6685790  17.9338419  12.8243625   1.2145816  18.1012189
  14.0171719   1.2242934  17.1695018  30.9923363  66.7258358  42.6170683
  30.3335142  66.3966751  43.2284927  31.4712262  65.9454393  42.3379993
  13.0134737  53.5449839  22.4083376  13.1997490  53.3677149  23.3303523
  12.2541022  54.1274834  22.4250960  55.2685595  74.9525070  33.3490181
  55.4393768  74.4642258  32.5436401  54.3214750  74.8880005  33.4719110
  40.8128309  57.0176649  19.1794610  40.0809479  57.4674892  19.6016395
  41.2843752  57.7099800  18.7162364  47.5040245   6.1775404  20.1719236
  47.6786423   7.0149571  20.6014276  47.2249699   5.5982709  20.8810139
   0.4908929  64.0397215  45.2230597   0.1341315  63.3981848  44.6087503
   1.4185931  64.0995884  44.9949837  33.6473107   2.3015717  36.9176364
  34.4276619   2.7280045  37.2718096  33.9880729   1.6441128  36.3111210
  21.9275188  62.1647644  54.7689247  21.7090559  61.2451410  54.6179295
  22.8119969  62.2618818  54.4160795  14.0295613  63.7656164  34.3893194
  13.1713235  63.4922695  34.0653729  14.0373969  64.7158670  34.2744493
  35.2560711  44.1781473  28.7669635  34.7298336  44.4912577  29.5026731
  35.0160027  44.7519684  28.0394149   7.0228571  73.0150938  42.3295689
   7.9469937  72.7753019  42.3981619   6.5616441  72.1781063  42.2750998
  27.4828792  75.4756260  28.3240366  28.1738544  76.0668468  28.0253005
  27.6754570  75.3308725  29.2504239  75.6409359  61.3165903  13.1888151
  75.8407688  60.3963614  13.3605099  75.1254511  61.3033199  12.3823845
  31.8189645  49.8341751  27.8969169  32.6576376  49.7262478  28.3454823
  31.6508818  50.7760334  27.9267001   3.2027704  73.0572748  39.8427582
   2.3326644  73.3529234  39.5749140   3.8066798  73.6177492  39.3555260
  62.1910715   2.3543939  39.2816567  61.5473461   1.7344293  39.6244359
  63.0358744   2.0012830  39.5606756  22.9863167  64.2317629  21.4730024
  22.0636415  64.3358564  21.7055249  23.4542108  64.7905540  22.0935321
  24.0242958  58.3418512  36.9923186  24.4776845  58.5845423  37.7996445
  24.3775487  57.4807549  36.7688131  58.4435081  44.9858046  63.6410618
  57.5174141  45.1873636  63.5070610  58.4932947  44.6789742  64.5463800
  35.8629704  48.8516808  36.0013866  35.1714373  48.2111406  35.8348870
  36.5634155  48.3461905  36.4138007  14.3858790  41.0081863  10.0034344
  13.9699471  40.3412533   9.4571465  14.3344820  41.8100643   9.4832641
  34.6399641  59.1864109  22.8973484  35.2915406  59.8015928  23.2338428
  33.9124560  59.2455673  23.5165930  24.0136719  58.5411453  44.9751711
  24.7188616  58.4494066  44.3344498  23.2904744  58.9279795  44.4816351
  39.1207576  33.6918736   3.7793645  39.2299151  34.3443179   4.4711980
  39.9225831  33.7564421   3.2605788  32.8930497  55.7564640  27.1432948
  33.4600735  55.0187111  27.3678684  33.2770467  56.5025520  27.6038694
   6.7694801  71.3004112  32.8956604   7.5515366  70.7896185  32.6865983
   6.1151057  70.6466198  33.1417942  10.9474289  69.9092150  22.6404214
  11.2842464  69.9083376  21.7444372  11.6073167  69.4334507  23.1448293
  43.2479477  74.9682045  14.7355342  43.8692665  75.6869793  14.6191013
  43.7891197  74.1788340  14.7193849  41.6222477  71.2066317  35.2021384
  42.0785284  71.0323763  34.3789268  42.2994471  71.1237288  35.8735299
   6.0195935  70.3965282  28.9240623   6.9234520  70.6614590  28.7535191
   5.4974598  70.9226704  28.3184338  30.4748797  67.5924349  20.8427858
  30.8034134  66.7566109  20.5115867  31.2631226  68.0963755  21.0451388
  35.5664825  66.1825943  28.1753516  36.0720134  66.2151766  27.3631883
  35.3144050  65.2634335  28.2638550  77.7548027  40.7649708  62.4240875
  77.7038002  41.5774107  62.9276514  78.6866856  40.6602955  62.2320795
  59.6282768   7.0366395  13.0198061  60.5517530   7.2113216  13.2012308
  59.1965771   7.1237493  13.8696742  16.4446425  39.5507216  16.0159528
  15.8150542  39.4360399  15.3041255  17.2627056  39.7836947  15.5769444
  26.3880277  75.5908251  42.8589582  26.6377521  76.3613081  42.3488379
  26.4026356  74.8709536  42.2282457  48.9260292   4.9578476  23.6113024
  49.4539547   5.4527462  24.2378855  48.2003498   5.5431849  23.3945036
  54.6374130  67.6236057  22.5287414  54.0001822  68.1131554  22.0086384
  54.1439819  66.8794060  22.8736043  59.8973656   1.6409102  35.7426190
  59.6537542   0.7634797  35.4476595  59.7539186   1.6239321  36.6888595
  41.8687010  68.9711523  32.6303720  42.5097132  68.2681131  32.5251532
  41.3768148  68.9716578  31.8092275   9.1034722  24.1027617  63.8067913
   8.3194673  24.5409226  64.1378260   9.6041846  23.8820958  64.5921755
  33.6129808  75.5851221  47.1293163  32.8728700  76.0516787  46.7409945
  33.3252120  75.3770781  48.0182123  26.1871672  64.2706633  24.9299550
  25.4811788  64.7307491  24.4759345  26.3316369  63.4804344  24.4094777
  32.7183747  40.7668781  16.6525340  31.9154644  40.4634619  17.0762181
  33.4227824  40.4395247  17.2118890  16.1751699  38.5840726  26.1860943
  15.4924548  39.2250633  26.3842440  16.9882441  39.0070605  26.4621782
  27.7819157   0.7481045  26.5280056  28.3130217  -0.0003158  26.8000817
  28.1401849   0.9991679  25.6766295  24.2662883  75.3665352  10.5808318
  23.8155866  75.0238419  11.3526225  23.5634756  75.6881714  10.0161755
  21.5815735  35.1918721  30.3556967  21.2940049  35.1160836  31.2655282
  21.0853291  35.9331608  30.0086164  35.3174424  60.6793976   4.6377867
  35.0745630  61.5814018   4.4289178  36.1944318  60.5758476   4.2684615
  40.0577259  52.4726486  31.9531202  39.3281603  51.9068623  31.7004371
  40.1063633  52.3898077  32.9054880  43.9632463  57.4459934  35.7990074
  43.1498480  57.4745893  35.2952290  43.7912560  56.8126869  36.4958429
  10.8779144  41.3704062  62.8791332  11.5379536  41.7712736  62.3135519
  10.1808393  41.1018419  62.2806454  43.9650202  63.5651779  13.6704576
  43.9526129  64.3434286  14.2275965  44.6837902  63.7206888  13.0577445
  38.1982160  49.8272371  13.4464085  38.1751442  48.8713169  13.4026313
  38.9084244  50.0219250  14.0579081  17.4803352  57.0536947  28.0943203
  17.9508305  57.8425312  28.3637738  16.5556288  57.2828722  28.1871915
  40.5853510  69.3703365  44.5397329  40.2302217  69.2849541  43.6549568
  41.1137772  68.5817671  44.6628523  23.8411760  58.1559992  49.6061230
  24.7675538  58.2592297  49.8238420  23.5953116  57.3174715  49.9968243
  21.1318564  55.1889563  13.5859263  21.3466740  55.5280638  12.7169669
  20.1751208  55.1942492  13.6153066  29.1528082  52.8731489  25.9425020
  28.2514334  53.0979300  26.1732149  29.2261362  53.0990219  25.0152278
  18.4860587  61.8944216  43.8886023  17.9606485  62.4320078  43.2959986
  18.2399929  60.9939671  43.6767817  32.1048522  37.0034552  13.5783362
  32.4539089  36.8738818  12.6965189  32.0193601  36.1190820  13.9344335
   2.9486242  49.8060656  12.0257187   3.0597264  50.7072496  11.7228103
   3.4393713  49.2791700  11.3950193  24.3710160  67.4558783  29.8548317
  23.5189986  67.2717953  30.2503204  24.5385861  68.3748198  30.0638771
  46.3152838   4.9127373  43.1562662  45.8908701   5.2421576  42.3640633
  46.7871380   4.1314101  42.8679752  43.8138247  68.1915236  17.9262638
  43.0416203  68.5572147  18.3577716  44.1526556  67.5469875  18.5475516
  14.0951788  42.7006578  20.9843373  13.5299730  42.2769547  20.3383875
  14.6732926  42.0023155  21.2914777  23.5638595  50.2587795   3.1791800
  23.3440948  49.7289467   2.4128830  22.7179480  50.5497217   3.5197917
  14.5750248  45.2829552   6.6272801  14.5871615  44.6251392   5.9320378
  15.4962981  45.4075336   6.8552482  29.5371342  69.8583794  27.9260445
  29.0868020  69.5432520  28.7097096  30.0748324  69.1180992  27.6448011
  13.4413397  28.4489250   8.4581548  13.5286999  29.2262411   7.9064471
  12.5030863  28.3864093   8.6370534  62.7923441   8.2221866  33.1784630
  63.6197615   8.6880553  33.0577445  63.0480862   7.3083436  33.3038425
  15.1229453  57.6343679  30.5254102  15.5320966  57.1746826  29.7922516
  14.1938889  57.6693869  30.2976799  48.0680799  55.2721786  33.6679983
  47.7951813  54.6287727  34.3220496  48.6810207  54.7976637  33.1064224
  45.4268265   4.5385346  59.3635511  44.8306084   4.1960135  60.0294638
  46.0997725   5.0033474  59.8608685  64.4294214  26.9145131  49.3305159
  63.5953808  26.4459610  49.2979288  64.2375755  27.7108598  49.8257542
  75.7627106  68.9769173  33.1311870  74.8407125  68.8832426  33.3707213
  75.7631540  69.6296692  32.4310780  11.2044632  55.2293921  30.8699703
  10.6844330  55.9217453  30.4619861  12.0519531  55.2739286  30.4272413
  31.8027711  40.2024460  33.4833741  31.6699195  40.6776285  34.3036079
  31.0509038  40.4436874  32.9423308  37.6982856  60.9613943  20.8303118
  37.1773410  60.5197763  20.1596260  38.0414081  61.7404652  20.3926420
  39.2492008  72.6718044  19.7769225  39.7356510  72.0236778  20.2863669
  39.9240327  73.2397842  19.4051230  32.2341514  33.2341814  34.1887212
  32.3320103  33.3789110  33.2476020  32.5919843  34.0254951  34.5912266
  31.1562705  52.9879665  31.2646914  30.7044911  53.5061312  30.5986333
  30.6879258  53.1811237  32.0768332  39.4688272   3.6183369  47.7451515
  38.5295177   3.6079443  47.5612545  39.7316003   4.5269689  47.5982857
  14.0389180  74.3999767  12.2681725  14.6263683  73.6449242  12.2360861
  14.4161522  74.9685860  12.9394495  51.6980553  66.6552019   8.8358027
  52.2067070  67.0330524   8.1183535  52.3452139  66.1997557   9.3743050
  53.1503963   4.5949969   6.2082297  53.9328194   4.6635962   6.7553484
  52.4856853   4.2210922   6.7866659  61.8335676  67.7819395  34.9481940
  61.7421865  68.7099648  34.7322178  61.3511801  67.3267746  34.2580080
  71.0287571  25.3582907  34.1757798  70.9883404  24.5064855  34.6105528
  71.6854477  25.8486724  34.6702647  70.2200747   1.3840683  40.0049734
  71.1493301   1.5688017  39.8686075  69.9259710   2.0672184  40.6075001
  25.9735489  57.4803400  32.9333997  25.4932165  57.5277042  32.1068001
  26.0859513  56.5430403  33.0917287  53.2362270  23.3243036  55.0499773
  52.8831339  24.1376138  54.6893072  53.5695744  22.8495026  54.2886114
  18.8921249  35.0884771  55.8302069  18.2751727  34.6076941  55.2784348
  18.7047315  34.7859883  56.7188072  36.5835214  65.7616520  31.5640235
  37.4097443  66.0262060  31.1595488  36.0633659  66.5646458  31.5935230
  40.8127594  61.6013670  12.1666312  41.4913321  61.0846710  12.6011407
  41.1867046  61.8179226  11.3125241  38.9754677  62.6787758   8.3126003
  39.6038771  62.7220011   9.0333384  38.2644963  63.2614756   8.5794562
  62.1016073   5.3130466  14.3459201  62.4920034   5.8268398  13.6389279
  62.5720024   4.4796857  14.3243182  11.2745416   5.2309954  24.3144965
  10.8231080   6.0617197  24.1650414  11.9962311   5.4530412  24.9027920
  53.6349201   1.4473295  54.7075844  53.9579391   0.8476567  54.0350676
  53.0388021   2.0325817  54.2403030   3.4886304  52.2101307  62.0680857
   4.2517519  52.7871323  62.0373964   3.2934195  52.1205902  63.0008793
  54.1611481   1.7375430  29.6452093  55.0383997   2.1107027  29.5590949
  53.5708714   2.4734853  29.4833684  19.1308939  67.9579687  34.9944639
  18.8482642  67.7400446  34.1062856  19.5992684  68.7873888  34.9000406
  30.9071875  58.9188719  41.9177866  31.0853410  58.6725760  41.0101318
  31.7711568  59.0849686  42.2948790  32.5651407  70.0835323  21.1855197
  32.9349041  70.3981066  20.3605652  33.1437182  70.4410267  21.8590760
  40.2644682  14.7370601  24.2087650  40.9676218  15.2707696  24.5788527
  40.7069826  14.1487098  23.5969996  63.8240385  29.6085143  14.1959584
  64.2221451  29.8554158  15.0306928  64.0677643  28.6905956  14.0765738
  38.4854889  61.7048073  34.6231914  38.1499267  61.3967896  33.7813187
  37.7015924  61.9048166  35.1347923  63.2390404  58.6465549  29.4070625
  62.3272562  58.8354826  29.1852951  63.7397003  58.9702940  28.6582208
  40.3399420   7.3383290  23.5175872  39.9130344   7.6028055  24.3324709
  39.7490025   6.6881847  23.1376719  51.3449955   2.4776749  27.6940632
  51.8366909   3.1907454  28.1014895  51.0270452   1.9548424  28.4301233
  47.7191830  75.2413559  22.0781207  47.5678968  75.7385397  22.8819585
  46.9075537  75.3385019  21.5800714  59.5782804  30.3060555  54.6739912
  60.5060482  30.0709701  54.6886158  59.5696449  31.2549925  54.7992086
  68.3240747  24.4852281  22.3763394  68.1819534  24.1293907  23.2535028
  69.0739632  25.0719690  22.4744964  39.6533656  72.0401716  37.0197654
  38.8990545  72.4685812  36.6151571  40.2315712  71.8304062  36.2863421
  31.4794517  66.5850306  23.5349107  31.3989162  67.4243736  23.9879608
  30.5832124  66.3612986  23.2840490  25.8127666  59.0685987  29.6942186
  24.9579048  58.6942768  29.9071264  25.6670451  60.0146389  29.6955776
  17.1933377  72.3042059  24.3792772  17.5182772  73.1689358  24.1285014
  17.7343655  72.0528650  25.1278400  58.4527588   3.3211517  40.1287985
  58.5571814   3.8041475  40.9485817  57.7118063   2.7364531  40.2880144
  39.1068745  65.8470678  30.3975940  40.0430679  65.9799719  30.2488923
  39.0005326  64.8960543  30.4198670  20.7714033  69.6920347  17.9163182
  21.1456203  68.8578796  18.1998253  20.7843804  69.6477509  16.9602323
  10.7659864  61.6649342  25.2802491  10.7412291  61.7797947  26.2302113
   9.9626917  62.0811462  24.9676538  43.4138203  76.8652868  37.7830744
  43.4176445  77.7428389  38.1653237  44.3045616  76.7432451  37.4545693
  23.7625647  66.4886808  11.4244235  23.1537819  65.9841490  11.9639254
  23.2261205  67.1848392  11.0451818  51.8531847  14.6068525  35.4599333
  50.9677649  14.9414062  35.3173208  52.1747684  14.3987286  34.5827198
  26.7231917  69.9959469  19.8562133  26.1290550  69.9501944  20.6053066
  26.7094755  70.9168673  19.5955324  48.8240385  59.5449114  30.0200915
  48.4689808  59.4095564  30.8986402  49.0627718  58.6677217  29.7204733
  64.2020416   0.5226821  46.6387939  64.5530224  -0.0015204  45.9188938
  64.3175602   1.4290705  46.3535786  28.8274670  58.8279963  12.0297468
  28.4900093  58.5725069  11.1712122  28.2880735  59.5760059  12.2861993
  21.1316395  75.9917784  13.0330276  20.8389139  76.1479521  12.1351683
  22.0207810  75.6499815  12.9390311  47.5038767  75.5866528  28.6462545
  47.7051353  74.6653605  28.4820962  46.7008734  75.5673170  29.1668749
  25.1051617  75.5174065  47.7193546  24.9114108  76.2758350  47.1684599
  25.7851887  75.0421047  47.2419834  54.2388582  63.7524652  42.6093912
  54.0326357  64.5452261  43.1046009  53.5648632  63.7117577  41.9309282
  38.9250112  63.2631016  31.0974407  38.1633139  62.7476215  31.3626361
  39.3195772  62.7587891  30.3859496  43.2851171  61.6809177  22.7407384
  43.2982779  62.5246620  22.2889042  42.4479437  61.6707182  23.2047081
  45.3664017  10.3269255  28.4751916  44.7750854   9.6901834  28.8766098
  45.8591938  10.6924975  29.2098641  62.3737621   7.9754710   6.1032706
  61.4621878   7.8356951   5.8469009  62.3902321   7.7871895   7.0416260
   1.0952058  24.4825172  10.5098736   0.4908666  24.9985886  11.0434234
   1.1333707  23.6315560  10.9464967  31.5741539  52.5164938  11.9466984
  31.7687106  52.7242708  11.0328007  32.1512532  53.0901146  12.4508297
  26.5472198  45.0496340  28.1883240  27.0773792  45.1353788  28.9806676
  26.1241102  44.1953611  28.2745266   9.7623205  64.3806505  21.4641881
  10.0457335  63.6237240  21.9770002  10.2034342  65.1254702  21.8727112
  40.5406809  76.5802479  38.9275122  40.5761242  75.6255341  38.9866519
  41.4121914  76.8339157  38.6236167  54.0741730   6.5566814  30.2596903
  54.5094919   5.9769559  30.8847046  54.6813726   7.2882396  30.1485133
  57.7761507  21.2866259  10.8117342  57.0053530  21.3789916  11.3717091
  57.7163219  20.3956914  10.4669273  47.8708553  69.4940424   4.9169457
  47.8321600  70.3858423   4.5713726  47.7620029  68.9343214   4.1481176
  34.0572023  70.1738691  40.3585863  33.9791441  71.1156511  40.5108452
  33.2957745  69.7961569  40.7988071  27.2546983  58.3632660  25.6056166
  27.7168536  57.8493643  24.9433827  26.6570878  58.9180088  25.1042676
  22.0216155  75.8928442   9.1637671  21.3761878  75.4335833   8.6264277
  21.6325712  76.7528582   9.3226773  60.2122307  17.4158382  41.2214327
  59.3091106  17.1107972  41.1345387  60.1458740  18.2149911  41.7440987
  25.7870078  60.0755310  10.0191474  26.5906429  59.5578051   9.9705714
  25.8234906  60.4942989  10.8791089  50.3916836  50.8256674  24.2454433
  51.0776949  50.9665346  24.8979616  50.7170820  51.2616539  23.4578753
  58.8345098  10.6238067  28.5099220  58.1746817  10.3787935  27.8612089
  58.3492327  10.6886232  29.3324399  67.6787663  21.1015677   9.0773815
  68.3049250  21.4873385   8.4647310  66.8230629  21.3853455   8.7557101
  48.3231163  70.4313517  13.1260884  49.2416334  70.6350088  13.3023810
  47.9825974  71.2149668  12.6945484  29.2078948  67.1467352  40.1667976
  29.8208404  66.9221687  39.4667292  29.7404552  67.1417809  40.9621525
  20.1174688  13.3837473  66.6644812  20.9757876  13.0014992  66.8472624
  19.8979831  13.0709982  65.7868433  26.0054111  72.1139288  12.7770114
  25.7741189  71.1857080  12.8107464  26.2822580  72.3243475  13.6688137
  27.2339582  72.2277737  17.9353690  27.2834802  73.1830645  17.9008269
  28.0811930  71.9318247  17.6024389  61.8273067  18.4627986  32.3670053
  62.3743391  19.1954792  32.0838737  62.4442148  17.8340530  32.7416134
  77.0247555  15.6887114   8.3699936  76.4434719  16.2917364   8.8333517
  77.9013348  16.0477304   8.5076463  30.9158850  58.5989237  25.6781507
  30.7688546  59.1458368  26.4498377  30.5543113  57.7454472  25.9170485
  51.9744825  13.1311536  51.3652658  52.5883293  12.6281559  50.8300877
  52.4080563  13.9740181  51.4987755  61.9963503  25.0786257  25.0996780
  61.3941908  25.2491498  24.3754148  62.3018503  24.1836691  24.9515152
  43.8273191  75.4632902  31.4040899  42.9801941  75.8200455  31.1370015
  44.0149069  74.7823954  30.7580042  60.0410604   6.3538224  37.3557091
  60.6638098   5.8539993  36.8278909  59.8188162   7.1096736  36.8120861
   6.7294407  73.6624575  39.2669630   6.1977899  74.1788912  38.6612582
   6.6204941  74.0979290  40.1123810  79.4107485   2.5488874  34.6931696
  79.9956465   3.2881600  34.8593020  79.3726206   2.4833666  33.7389779
  32.9681301  62.0095730  47.8563118  32.3865199  62.5329828  48.4076738
  32.5480294  61.1505890  47.8127909  28.8598084  71.2250090  23.0513167
  29.3393159  70.4692030  23.3905244  29.2221284  71.3656187  22.1765685
  76.2321281  22.7357078  32.0452070  75.4303837  22.3127723  31.7376828
  76.3771677  22.3687267  32.9172850  36.6784263  51.2539482  34.6142530
  36.4045238  51.3724804  33.7047696  36.2982965  50.4139233  34.8713350
  32.1390772  68.7678146  24.8692584  32.8222132  68.5880899  25.5152106
  31.6660953  69.5205975  25.2239943  51.2999821   0.4084727  51.7679739
  50.8741188   0.0706478  52.5558472  51.7148829   1.2234338  52.0506907
  17.0743561  62.7616405  41.9131136  17.2993958  62.1632481  41.2007141
  16.1193395  62.8196049  41.8845654   4.8883548   0.0772502  25.5706215
   5.5004728   0.8113245  25.5188704   5.0131041  -0.3970383  24.7485995
  48.1886578  59.7130489  16.6084254  49.1130733  59.7942734  16.8431461
  47.7178335  59.9060059  17.4191821  44.5457888  16.3893795  18.2478118
  44.4097424  16.2237942  17.3149109  44.9128008  15.5722010  18.5850859
  66.1609697  10.4247975  27.8685236  65.4578590  10.2537680  28.4951138
  66.8629074   9.8276865  28.1273150  61.4794731   4.7654438  35.1506972
  62.3513889   5.0634915  34.8915386  61.6265726   4.2623278  35.9516144
  69.1341925   5.4670012  36.0841417  68.2217312   5.1831025  36.1393142
  69.0958691   6.4178222  36.1875892  35.1251793  76.7533112  33.8266516
  35.1862335  76.2722874  34.6519518  34.1956615  76.9652557  33.7411571
  68.1064320  14.0412760  30.0723362  68.0285978  14.1440642  29.1238594
  68.0303669  13.0983019  30.2181005  35.1243401  68.1571245  33.5363603
  36.0487485  68.0086040  33.3372498  35.0240707  67.8629398  34.4416952
  70.7834196  12.0588040   5.5612659  71.2604952  12.7927566   5.1740336
  70.5280685  12.3705113   6.4295202  67.6464462   1.0771471  43.8517809
  66.7854786   0.6890555  44.0078354  68.1101418   0.4269849  43.3240461
   1.5369421  50.0781393  30.1600718   2.3366860  50.5645037  30.3602958
   0.8428540  50.7367039  30.1876736  47.5939560  59.4254112  32.2823024
  47.1910906  60.2935314  32.2651172  47.1299934  58.9597893  32.9781222
  65.2750921   1.2089346  49.8491859  64.9980545   0.7141124  49.0780592
  66.1903858   1.4293040  49.6762514  27.8339934   1.2749638  43.1071758
  27.0639801   1.7642745  43.3968019  27.7238321   0.4053951  43.4918118
  25.8397222   0.6010171  18.5920954  25.6411195   1.5015195  18.3354151
  26.5947294   0.6791661  19.1752660  74.0747499  11.4756286  15.9276748
  73.6124325  12.3050892  16.0480487  73.4983540  10.9597933  15.3638339
  72.2706556   4.1040289  20.9198642  71.5403175   4.7200015  20.8614087
  72.7410269   4.3646842  21.7117238  42.7145576  65.6410027  37.2597933
  41.7727709  65.6520605  37.0890737  43.0285549  66.4809370  36.9249010
  55.1923418   3.4830356   7.7482593  55.6713820   4.1626924   8.2224095
  54.8816824   2.8883845   8.4309852  35.7691002  61.8052101  35.9741926
  34.8968744  61.4279270  35.8596754  35.8969092  62.3525667  35.1994061
  61.8538332   1.8619326  62.1575212  61.1677504   1.8565591  62.8249788
  62.6637363   1.7125143  62.6453400  30.4650331  69.9711657  43.5470724
  29.9435353  69.4349194  42.9498196  29.9881625  69.9387741  44.3763971
  31.4518857  65.8682299  18.9181888  30.8939886  66.1158800  18.1808591
  32.3424721  65.9126091  18.5701704  79.8308945  74.4651365  48.2559586
  80.6428814  74.8816919  47.9671812  79.5074081  74.0074110  47.4800253
  61.3898134  69.1713524  16.8044508  60.7930183  68.4446287  16.6257298
  61.8327618  69.3281555  15.9705222  47.1569824  75.8040524  39.3463016
  48.0610514  75.6000042  39.1070056  46.8128014  76.2851858  38.5937858
   4.1915202  13.2012212  21.5541553   3.7708038  12.3598945  21.7313504
   4.3777862  13.5630476  22.4205375  50.1974058  17.0568717  50.8525658
  50.1085711  17.7566183  50.2054977  50.8896732  16.4950275  50.5042458
  52.5611258  65.8984327  12.5356376  53.1533575  66.6258335  12.3449039
  53.0525494  65.1168680  12.2828698  32.6803207  74.8553753  49.7061348
  32.4642277  75.6266356  50.2302504  33.4764218  74.5078993  50.1082754
  44.2215633   2.0648581  34.1765404  43.8275576   2.0404831  35.0485492
  44.7930527   2.8325498  34.1933060   9.8362827  15.1985538   7.7212375
  10.6572080  14.7851551   7.4540019   9.3759298  15.3700268   6.8997121
  57.0325851  19.8233175  37.7829742  56.2621927  19.8654544  37.2164464
  57.3808575  20.7149076  37.7803659  16.6159749  72.1754932  29.8088217
  16.7558980  73.0988789  30.0186110  15.6647933  72.0840359  29.7529578
  52.4653101   1.2492913  61.0324764  52.4829578   0.8601210  61.9068146
  52.4085045   0.5009635  60.4383278  52.0533323  74.8101091  50.9490585
  51.9886541  75.7459831  50.7588243  52.1664238  74.3987799  50.0921774
  71.8987274   7.2672933  37.1384645  72.6465893   6.6925466  36.9753575
  72.2726822   8.0252576  37.5877786   0.6992434  33.4144402  26.5525031
   0.8876092  33.2494044  25.6286454   1.3926008  32.9531646  27.0244288
  41.2334871  67.5706673  35.0544882  41.1409712  68.1689548  34.3130565
  40.7225418  67.9764128  35.7548714  53.1547213   7.6488376  25.6146693
  52.8070164   7.8721875  26.4780617  54.0463638   7.9969740  25.6181550
  67.3154449  26.1081982  34.0361762  67.3267317  25.8372593  34.9541616
  67.4736357  25.3012061  33.5463071  10.4271126  71.6890478  30.9758973
  10.4662132  71.1787462  31.7847848  10.7678115  72.5498724  31.2190676
  47.1621704  68.9395046  34.0308452  47.9145050  68.3479738  34.0486765
  46.4514160  68.4121132  33.6662674   8.9105105   2.1772228  20.9939361
   8.1971723   2.7097791  20.6421328   9.5302647   2.8130633  21.3514876
  45.6501961  65.8021069  16.5271544  45.0780201  66.4993763  16.8475544
  45.7165861  65.9604883  15.5854857  41.4355135  63.7316227  39.2723012
  41.6203737  63.1508446  38.5342264  41.2234354  64.5728588  38.8678503
  62.2742558  72.7406979  47.3210192  62.2078609  72.5329447  46.3889980
  62.4471140  73.6818600  47.3448944  63.9745092  74.3487692  10.7482564
  64.8535776  74.1277266  10.4406643  63.6563063  73.5459566  11.1611354
  79.7392416   9.9433732  30.9088373  80.1864815   9.1877836  31.2900114
  79.9166870   9.8784447  29.9704719  35.4188514  49.9733543  32.4550986
  34.5246434  50.1028585  32.7710891  35.3284717  49.3614626  31.7245817
  25.2116346  67.5556517   7.8637588  24.4177341  67.1553087   7.5092459
  25.6394887  66.8501616   8.3489984  20.4959679  64.1437531  22.4300408
  19.8929322  63.5355186  22.0026946  19.9872339  64.5206785  23.1479216
  81.4164543  25.8579350  40.5737877  81.2952423  26.3450909  39.7587919
  81.3572788  26.5218711  41.2607527  44.0940571  65.0741816  29.6078825
  44.4620609  65.2775431  28.7479687  44.7993565  64.6200752  30.0689363
  31.9335556  60.9080076  45.2979946  31.9827700  60.4311371  46.1264896
  31.5071917  61.7350388  45.5226326  11.1829638  63.0359745  39.3714619
  11.2311578  63.7932158  39.9549794  10.4995656  63.2627201  38.7407589
  50.1310635  67.5384521  12.7877045  49.7021294  67.3154879  13.6138606
  50.9790421  67.0965528  12.8312051  53.7530088  56.9111681  24.4003582
  53.8417006  57.5418472  23.6857891  52.8323841  56.9671822  24.6563697
  32.4817014  43.3860636  37.6547861  31.9276381  42.6105976  37.7436543
  33.3640790  43.0368853  37.5294161  56.8554163   1.7485325  26.8578315
  57.2811270   1.6476530  27.7092004  55.9949827   2.1147649  27.0621824
  74.1247463   1.6008249  42.6328087  74.0083694   2.4456160  43.0675697
  73.2559395   1.1995591  42.6526260  15.7019055  68.8947439  39.5427537
  15.3206158  68.5075140  40.3307247  16.6090322  68.5892153  39.5406055
  45.0822687   8.8986242  24.4394755  44.2086935   8.5081744  24.4649172
  44.9472189   9.7625792  24.0501475  43.6145926  56.1670208  17.9827464
  44.0441179  56.1952162  17.1277928  43.1116962  55.3526497  17.9713905
  32.9534292  70.9752607   8.1244928  33.5156322  70.9059668   8.8960874
  32.2706127  70.3195381   8.2659990   4.9777681  42.9788017  35.4708600
   5.2983826  42.2038078  35.9321904   5.0894189  43.6937809  36.0974121
  51.1427641  73.7153435  10.4172695  51.9254398  73.7841272   9.8705333
  51.4777136  73.6968613  11.3137627  66.1844826  76.4757729  17.8324687
  65.4880714  77.1082401  18.0091798  66.1434031  76.3322210  16.8869865
  36.1297965  50.5972242  19.1579771  36.9911885  50.5815220  19.5750964
  36.0559678  49.7448635  18.7287235  73.9686060  39.5337820  63.1493092
  74.8062992  39.5853829  63.6095667  73.7852478  40.4349804  62.8838825
  38.8884258   8.9373392  36.7766857  38.9414048   8.6066157  37.6733732
  39.0214849   9.8814559  36.8613672  71.3460302   5.3429216  34.6865582
  70.4237700   5.2719533  34.9327826  71.8224859   4.9918798  35.4388857
  22.4122572  74.4265461  25.7745481  22.7025867  75.2988005  26.0412073
  22.8204346  73.8346624  26.4064503  20.7936978  54.7155571  24.9930191
  20.7486725  53.8341570  25.3636026  21.6318130  54.7386885  24.5312166
  50.0015402   6.7595875  25.3312755  49.7712851   7.3199731  26.0723448
  50.2198982   7.3706967  24.6276450  38.5834694  61.3590908  42.0821524
  37.6903224  61.0501432  42.2340536  38.7290716  61.2201262  41.1463547
   2.1398768   7.2588575  39.1701007   1.8703239   8.1194675  39.4909167
   3.0377585   7.1561128  39.4855118  74.6753979  14.0944624  53.4637499
  74.0409231  13.5635471  52.9822922  74.1435623  14.7409260  53.9279318
   3.2799643   1.2005759  19.2992580   3.0797172   0.6480578  20.0548077
   3.1612286   0.6251790  18.5435784  79.2732859   4.8737580  47.3578453
  79.5517540   5.5248570  48.0018568  79.8504257   4.1252422  47.5090504
  77.2547197  18.0704856  22.7171946  76.5137815  17.6193619  23.1218338
  77.3756981  18.8570607  23.2490730  45.7610989  66.6687727  24.8945260
  45.6165504  65.9063244  24.3341613  46.5378761  67.0914412  24.5281863
  22.3265934  76.8539333  23.6238742  21.5139437  77.1805048  24.0101147
  22.8026915  76.4674044  24.3588305  61.2057114  76.4658165  17.6986206
  61.3589907  75.5928612  18.0601299  61.3390398  77.0582676  18.4385264
  57.2809029  68.1106997  43.7282133  57.2912216  69.0649748  43.6541796
  57.2781420  67.8002357  42.8227615  34.7566366  76.2245560  38.3060193
  34.0789747  76.8819952  38.1486082  34.4209862  75.7047224  39.0363216
  66.8628168   6.4300334  63.6025000  67.7822876   6.5842044  63.3856106
  66.5198946   7.2964180  63.8216209   0.8562873  17.0320487  35.0350976
   0.2560314  16.3050842  34.8694253   1.3442892  16.7668104  35.8146715
  62.6705837   9.0076381  23.8309598  62.2537327   9.1859740  24.6739697
  61.9407034   8.8914067  23.2226849  64.0798378  64.4325542  33.4079266
  64.6899700  64.0547562  34.0413666  63.3590221  64.7684908  33.9406514
  52.8664398  72.3650932  40.3296566  51.9879198  72.0800209  40.0783253
  52.7803802  72.6261616  41.2465382  36.5830946  62.8545332  14.9858832
  36.3103080  62.9621029  14.0747046  37.5042319  63.1147194  14.9924409
  29.3830156   2.6829451  18.3005548  28.7069345   3.1439850  17.8039777
  29.7160029   2.0211469  17.6944411  60.0416565  15.3561461  10.7656133
  60.9980965  15.3887284  10.7855272  59.8269653  15.1819837   9.8492038
  28.8562751  65.9617186  44.0485382  28.0748844  66.1257982  43.5205841
  28.7224770  65.0848436  44.4082928  77.3635006  67.2656584  50.2223158
  77.8662014  68.0667543  50.3698587  76.5636063  67.3872185  50.7338047
  52.0897102  75.3370094  30.1086521  51.4364433  75.1542902  29.4333053
  52.8847265  75.5521202  29.6208978  73.3938789  73.9770460  58.0204487
  74.1886044  73.5588312  58.3517122  73.7114239  74.6983337  57.4771786
   0.9059078   3.8723913  26.9482946   1.5590493   4.2810434  27.5163102
   0.9106372   4.4072199  26.1544633   4.5263633  23.2142615   5.0704545
   3.7672400  23.3727860   4.5093542   5.0033134  24.0441680   5.0682420
  30.1159644  41.1685467  13.0153179  30.6481719  40.3779316  12.9263449
  29.4033122  41.0494518  12.3874855   1.4662449   9.0816569   1.5296085
   1.1005306   8.3255726   1.0704552   1.3751304   9.8053581   0.9097806
   1.2457922   8.7460691  30.7595468   0.7490610   8.3146352  30.0643086
   1.7455877   8.0404544  31.1700869  20.2863932  73.1097126  45.6207466
  20.9440923  73.7541533  45.3592825  20.2393699  73.1885242  46.5735340
  23.9697027   7.5515485  14.7867870  23.2428956   7.9341269  14.2952418
  24.6817303   7.4872154  14.1503060   8.3803445  54.7605991  23.6739898
   7.7297533  54.1251612  23.3753586   7.9267341  55.6027269  23.6380124
  20.8482742   1.5243044  15.2481449  20.6055355   0.7072739  14.8125184
  20.7181168   2.1989250  14.5816791  63.7746811  19.1084874  17.2590458
  63.8446808  19.6127653  16.4484692  62.8615761  18.8224912  17.2851026
  82.1981948  16.9265223  29.6534967  81.8067195  16.8570662  30.5242157
  81.4539618  16.8898165  29.0526605  41.6105509  13.7015915  15.4003012
  41.4315367  12.8270209  15.0548851  41.4338255  14.2898536  14.6661699
   8.3700383   7.8705901  33.0359077   7.8194916   7.4623001  32.3677540
   7.9160124   8.6839819  33.2561016  25.3010511  25.4991937   5.8990759
  25.5880976  25.9902334   6.6689569  24.7232914  26.1026096   5.4318357
  59.7421074  67.1358681   9.9334103  59.8313379  67.2776699  10.8758342
  59.0006304  66.5362215   9.8505700  15.9184289  36.6864228  38.3313489
  15.6350851  37.5679803  38.5738420  15.7324398  36.6242957  37.3944473
  14.1827106  22.6396489   7.0101362  13.5917175  23.3758807   7.1680057
  14.7126591  22.5831604   7.8052431   1.4267911  13.2679379   2.0572150
   2.2759250  13.0300283   2.4295083   1.0259244  13.8335967   2.7171910
  81.4551640   7.4038792  34.3261623  81.1006737   7.6111406  33.4615159
  82.3465157   7.7523708  34.3094087  79.0633774  18.6171257  16.9356048
  78.4138489  18.6560655  17.6376235  79.7396040  18.0265129  17.2674561
   3.8612500  19.6486354  25.8935857   3.7158582  18.7521720  26.1959863
   2.9816395  20.0074530  25.7762527  23.6442780  32.6316190   9.6521068
  23.2651114  31.8231225   9.9967778  24.0428281  33.0529141  10.4136193
  72.8759802  77.1926050  28.1043100  73.4777642  77.0051655  27.3839259
  72.0299221  77.3330814  27.6792407  30.7704616  69.5494986  49.7076511
  30.9423900  68.8816977  49.0437889  30.1450944  70.1438951  49.2931128
  27.6659989  11.0840690  62.6890087  28.0403709  11.9036949  62.3660707
  27.1219707  11.3455498  63.4319067  36.7120504   5.1496249   2.3645894
  37.6056504   4.8130429   2.4311271  36.8206310   6.0815334   2.1748798
  31.8486238  40.9463692   7.4705994  32.5659704  41.4032650   7.0314080
  31.5814662  40.2679253   6.8504566  17.2319877  14.4208348  24.2223907
  18.0713344  14.4560814  24.6811795  17.3114252  15.0739777  23.5271740
  18.1495583  26.7780852  15.0114119  17.8065634  27.6250744  14.7264647
  17.6857722  26.1379838  14.4715917  38.3679509   5.8860755  22.4052119
  37.4763727   6.2123114  22.2831964  38.2784963   4.9331853  22.3900509
  27.5118709   8.5094613  17.3455644  26.6502166   8.3855373  16.9475329
  28.0346417   8.9257514  16.6602576  21.7772865  32.8230309  12.7437460
  21.0893011  33.4762263  12.6162946  21.9334579  32.8208017  13.6881173
  26.1008072  66.8429565  51.0114765  25.6799078  65.9842587  51.0528183
  25.5665636  67.3420620  50.3936481  13.9033246  30.8864522   1.2364680
  14.3431747  31.4481807   1.8746093  14.3029678  30.0254393   1.3596568
  71.5558767  37.5839353  17.6306391  72.0926952  38.3569169  17.4558437
  70.7583094  37.9314995  18.0297863  81.7918771   0.8217589   4.0296274
  82.3388007   0.0370169   4.0654939  81.1360469   0.6262402   3.3603811
   3.2695824  28.1477165  10.4191089   3.9780858  27.5633121  10.6887889
   2.7788100  28.3162045  11.2234628  79.8276901  10.7461858  35.9906006
  80.2382469  11.5451252  36.3213134  79.6670675  10.9252739  35.0641227
  47.1058521  73.2442267  66.6485821  46.8706629  73.9019568  67.3030350
  48.0428026  73.3753951  66.5031581  79.6021986  13.7804306  13.6624932
  80.4697990  13.7307549  14.0637815  79.0385199  13.2738197  14.2471671
  24.7641945  28.3097601  27.1827865  23.8701415  28.6505055  27.1546173
  25.2379608  28.9261770  27.7411819  12.8075218  29.5302272  26.7838192
  13.1226718  29.6806836  27.6750398  12.1086764  28.8836670  26.8828535
  12.6324046  21.2011766  26.9898415  13.4623098  20.9846354  26.5648699
  12.4040329  22.0639014  26.6437435   3.0801040  17.5164664  33.5646081
   2.9625902  16.7434251  33.0124927   2.3457912  17.4866426  34.1778994
  45.5626535  71.1960936  39.8867917  45.3511000  70.3155518  39.5767665
  45.0912952  71.2777996  40.7158709  17.4757409  26.8611097   0.8043554
  18.0457413  26.6176772   1.5337878  18.0373490  27.3725152   0.2218680
  47.7958488  46.7240429  66.2925434  48.2659721  45.8937073  66.2166786
  48.4847546  47.3811007  66.3921261  23.7321186  35.7943010  26.5537262
  23.4047842  34.8965502  26.6096544  22.9647708  36.3401532  26.7253447
  24.7550201  43.4692764  24.1212726  24.9400020  42.5303936  24.1439342
  25.3624344  43.8173819  23.4685040   4.7039098  23.6816716  24.7827291
   5.0042367  23.8621688  23.8919687   5.3596079  23.0826807  25.1398039
   3.2085767  35.8371139  19.7643685   2.6046538  35.2198648  20.1773000
   2.8312770  35.9992647  18.8997400  39.4301081  23.4526801  27.8435230
  40.1946831  23.3938193  28.4164071  39.0474701  24.3073726  28.0418205
  21.3110042  13.7449908  14.1125846  20.4153109  13.7182415  14.4491112
  21.8573570  13.5291851  14.8683345  34.9111032  43.6222887  12.9359174
  34.5908070  42.8953266  12.4019086  34.1341305  44.1546917  13.1064796
  31.5373135  23.0847979  36.2599611  32.2658610  23.7054038  36.2426591
  31.0028410  23.3635449  37.0035148  11.2360251   5.5044866  29.2373013
  11.1677825   6.4549398  29.1466713  10.4814374   5.1633221  28.7572622
  42.4424839  73.6652899  58.4577036  42.0808077  72.7985430  58.6425638
  43.0999899  73.8009501  59.1399908  65.6085873  77.4126053  36.7448330
  65.8568144  76.8622828  37.4876380  66.0104752  76.9877052  35.9870911
   3.3196050  23.4860945  14.0632761   3.5793296  22.5649405  14.0790999
   4.1357368  23.9674258  14.1992176  81.8279266  17.3826861  15.5734837
  81.7303085  17.3075306  16.5227222  80.9620380  17.1688831  15.2259898
  29.0219975  17.5373888  11.0840058  28.4221101  17.9165351  11.7263556
  28.5187387  17.5154078  10.2700782  13.6264479  22.7244425  23.5237908
  13.5639524  23.6225271  23.1985712  13.1571651  22.2012043  22.8740025
  77.7349138  71.0890245  13.1224048  77.1296120  71.6177082  13.6423481
  78.1797028  70.5343485  13.7632823   6.7501992  63.4228516  17.7281809
   6.1857134  62.8542519  17.2044635   7.5174016  63.5731220  17.1758664
  15.9850299  18.8840902   8.4415191  15.1385045  19.2802680   8.2349503
  15.9824753  18.0526567   7.9672366  42.8578806   6.5277904   2.2009082
  43.3612061   7.2240525   1.7788754  43.4036446   6.2498748   2.9365289
  12.4023187  38.3140850  15.6445014  12.9480350  38.3799934  14.8608673
  12.2965264  39.2185426  15.9394574  21.0841012  22.8889585  20.8439374
  20.3285813  23.3444047  21.2154078  21.7747307  23.5512710  20.8193779
  25.2994680  30.3074479  11.4238119  24.9857616  29.4137859  11.2852848
  25.8206081  30.2568412  12.2251129   8.8771522  12.1090901  66.2653112
   8.6647636  11.2122226  66.0069466   9.3008178  12.0185006  67.1188545
  21.6748929  40.3745794  59.3523550  21.7762852  39.5892763  59.8901749
  21.5600872  41.0844040  59.9841785  20.5140710  25.3098774  15.2922750
  19.8153627  25.9156132  15.5395079  21.1845589  25.4303360  15.9647095
  58.5854769  13.0096889   7.4887335  58.1637287  12.1675897   7.3177642
  59.0253830  13.2284093   6.6672260  28.9942980  33.2230973  23.5777688
  28.9725471  32.9787683  22.6525331  29.2757845  32.4272895  24.0290856
  15.2649713  48.5492706  10.4284894  16.1384249  48.5488367  10.0369418
  15.4129326  48.7869930  11.3438177  15.3980291  16.7969227  28.3392787
  15.4341972  17.6323748  27.8735042  16.2830508  16.4407122  28.2612872
  17.1544552  69.7514105  21.2984657  17.5403750  69.3143034  20.5393624
  17.8571963  70.3049660  21.6389990  10.8322835  20.8142543   2.3675545
  10.7025504  21.1807132   3.2422599  10.7270694  19.8701775   2.4853706
   9.5731747  23.6411285  44.2956018  10.0083268  24.4717932  44.4876289
   8.9818770  23.5037994  45.0356960   9.5256090   7.1490729   5.8227527
   8.7973422   7.0899087   5.2044010  10.2285099   6.6440207   5.4139936
  14.3731534  54.0132618  42.9922199  14.3591869  54.3298626  42.0889997
  14.3845940  54.8086262  43.5246658  19.6731234  24.8363400   9.8156929
  19.4880271  24.9526095  10.7476008  20.0717425  25.6636286   9.5456386
  25.6316900  10.8970392  33.8736200  25.3055310  10.4606473  34.6606493
  25.1538372  11.7258954  33.8438749  13.6174226   8.1011015  14.6637368
  14.4401538   8.5827869  14.5781589  13.8701713   7.1806753  14.5918655
   5.6691569  24.3815017   2.3350795   5.1291996  25.1297736   2.0805910
   6.0123551  24.6160150   3.1973153  39.0041757  28.0747151  65.7238913
  39.9076152  28.3641005  65.8515072  38.8788795  27.3858309  66.3765574
  76.7700768  14.3873870  14.4551170  76.7117262  14.7503912  15.3388894
  76.3048172  15.0183070  13.9058399   4.1267055  32.1703672  18.1457281
   4.9336255  32.1226096  17.6330566   4.3442827  32.7418494  18.8821375
  35.1091552   2.2123122  23.7416983  34.2125249   2.4127758  23.4731841
  35.5392742   1.9173643  22.9390550  23.9184785  49.9074793  13.3945584
  23.0220962  49.7083044  13.6648524  23.9426041  50.8621883  13.3298969
  15.0802565  28.7396431  11.3337064  14.3643284  28.1105614  11.2446249
  14.6810937  29.5865464  11.1345720  76.1146021  22.4988079   9.7078288
  75.1699448  22.3460031   9.7303081  76.2023544  23.4214830   9.4686615
  38.1571531  60.2086163  65.5862522  38.2602096  61.1601496  65.5725145
  37.4728346  60.0511885  66.2367582  33.1265998  57.3811293  62.3752403
  33.8096428  57.7468824  62.9372931  32.3513246  57.9091787  62.5658703
  79.3373632  21.0670280  15.0642812  79.9728680  21.7292309  15.3360415
  79.4893694  20.3314424  15.6576097  23.5303020  51.5334225  33.2049870
  23.9939094  51.8776464  33.9684057  22.7889514  52.1273327  33.0870891
  26.1960220  35.9396911  25.5816555  26.6692853  35.9493566  26.4136171
  25.3129148  36.2337208  25.8050323  17.7034187  11.8085074  23.4932947
  17.5714386  11.1458826  24.1713381  17.1414220  12.5368857  23.7575960
  71.4467382  53.1734037   1.4741150  71.9456911  53.9806843   1.3493073
  70.8756924  53.3576536   2.2198953  23.5197759  21.0093760  27.1098042
  23.4714127  20.2637887  27.7081299  23.5981226  21.7718697  27.6831245
  65.9305525  19.6629906   6.4252192  65.2651739  20.1742530   6.8857777
  65.7009029  18.7517440   6.6072226  31.6317606  75.3371620  64.1532087
  32.5855255  75.4160166  64.1346312  31.3368583  76.1101007  64.6346998
  81.6123962  26.1464024  12.2628701  81.3818836  26.4377594  11.3807082
  80.8307457  25.6917953  12.5768530  24.5887589  22.7869630   4.7964701
  24.4847989  23.6611080   5.1723629  25.2237701  22.9040599   4.0898728
  32.0573759  14.6035838   6.9621044  32.5162339  14.7472072   7.7897829
  32.5036478  15.1762712   6.3383245   1.7569259  61.5359116  28.2754803
   1.4957066  60.6297827  28.4395742   2.2511092  61.7877388  29.0556073
   1.5865879  49.9537706  26.9732976   1.5450828  49.8030376  27.9176450
   1.9273643  50.8441401  26.8876219  11.8158054  39.2785263  11.5662038
  11.8457758  40.2079105  11.7933166  12.0060301  39.2548847  10.6283939
  25.6900191  17.9747176  22.5179672  26.6302443  18.1540525  22.5112224
  25.5560374  17.4278808  23.2920790  74.3764591   2.0859995  62.9377604
  74.0472698   2.3777340  63.7879086  74.9985981   2.7647436  62.6760721
  29.9110842  38.3852148  14.2101181  30.1023149  39.1165805  14.7972882
  30.7487822  37.9330063  14.1101086  30.7352924  14.6294665  18.6505294
  31.4379525  14.9391413  19.2220199  30.2229953  14.0367007  19.2004514
  13.9630437  31.0948896  10.6033444  13.8318348  30.8811331   9.6795893
  13.0781424  31.1551332  10.9632778  57.5696087   4.9840337  60.8202982
  56.8714428   5.2098423  61.4349604  57.1799755   5.1164919  59.9560785
   9.1663253  52.7325821   9.7105873   8.3570099  52.5539494  10.1894724
   9.3965089  51.8950176   9.3084311  27.4524260  15.8979177   0.3726993
  27.7977943  15.6351995   1.2258888  27.9505992  15.3778207  -0.2578200
  79.0977716  27.3554730  41.9287205  79.7423840  27.9812312  41.5983677
  78.4038448  27.9001045  42.3003006   1.0161045  20.1066995   6.0531175
   1.4331505  20.9531665   6.2137425   0.6608856  19.8494208   6.9039160
  53.7545490   8.8923973  58.3911800  53.2901525   8.0618119  58.2877541
  54.6765995   8.6444581  58.4588480  66.9854021   5.4709655  66.0478449
  66.7251778   6.3553548  66.3054705  66.6979551   5.3921288  65.1382351
  44.8168039  70.3084564  34.9740934  44.6011257  70.8310366  34.2016792
  45.7333326  70.0625610  34.8486257  14.0676951  23.7168074  28.8221025
  14.1469967  23.3449626  27.9436517  13.9335454  24.6530247  28.6746764
   5.1035786  63.5683537   5.9286022   5.0871062  62.7355719   5.4569727
   4.4000348  64.0821552   5.5320328  62.6828289  32.3490477  17.6086402
  62.4605608  31.4604235  17.8864396  63.3024454  32.2271776  16.8892968
   8.2924205  45.2404690  52.2181129   8.8113075  44.9531317  52.9693937
   8.6486727  44.7481108  51.4785862  78.7203884  63.4532213  39.1424394
  79.5953083  63.7790346  39.3536091  78.8593674  62.5407696  38.8887644
  12.7665544  28.2122660  22.8049421  12.6620293  28.0236053  21.8723583
  13.6081278  28.6643505  22.8649974  24.5177865  52.6275492  14.8867476
  24.9701428  53.4704018  14.9214447  24.3105149  52.4291945  15.7999420
  25.9082222  68.0314350  64.4144773  26.2108707  67.7547312  65.2793884
  26.7055511  68.0851460  63.8875914  14.2378640  15.5976677  43.9342165
  14.2601776  14.6871746  43.6397028  13.9053881  16.0851169  43.1805038
  15.0762570  28.1307244  29.3406415  15.9177160  28.3766031  29.7249866
  14.4580925  28.7752271  29.6851993  79.0667152  20.8413649  12.0166206
  79.2731237  20.6045127  12.9207945  78.6117506  21.6806030  12.0867658
  26.7455339  58.2916927  59.4282246  26.6134810  57.5058985  58.8978243
  27.6482391  58.5537624  59.2474604   3.2397932  17.0761061  26.0995555
   3.5180062  16.7382765  25.2482629   2.5302950  16.4925957  26.3685536
   1.0276444  42.5796700   1.9400313   1.3073149  41.7178679   1.6313064
   0.1674923  42.7096224   1.5406780  31.0525107  21.3936448  30.7882214
  31.6054225  20.7627702  30.3272247  31.2581801  21.2610912  31.7136192
  46.3648415   0.5968631  11.2370443  46.3787127  -0.3574334  11.3102388
  45.4360819   0.8261205  11.2698698   6.2799281  31.3557410  23.7456560
   5.7229143  31.0760236  24.4721031   6.8959290  30.6332326  23.6241889
   8.0762392  42.3526764   4.5055196   7.4561346  42.1324062   5.2006334
   8.4654319  41.5141726   4.2571890  31.6312408  27.5815797  15.3023112
  31.1054444  27.4517107  16.0915542  32.2956443  26.8936229  15.3412545
  78.5378313  32.4274063  26.2344551  78.8279438  33.2536244  25.8478975
  78.2745695  32.6590681  27.1251059   3.4443420  30.9927845  12.6532042
   3.0573979  30.3725672  13.2711327   2.7988619  31.0645700  11.9500446
  19.7128642  43.6580467  54.4687271  19.2342162  43.4374905  53.6696768
  19.7522569  44.6144342  54.4680691  81.0416317   2.8882724  30.9508395
  81.6796112   2.6675090  30.2722526  80.8199978   3.8040948  30.7823777
  10.6212354  28.1536913  33.6568117   9.9992591  28.8805914  33.6253190
  10.9048069  28.1205177  34.5704389  39.1147900  74.4633150  59.0695095
  39.2484069  75.1001072  59.7715569  39.8184276  74.6430874  58.4459686
  32.2369671  34.4581628  26.4537168  32.2528362  33.9792061  27.2823191
  32.8297877  35.1967478  26.5926027  15.3770185  28.7032223   0.3670250
  15.3313899  29.1250134  -0.4910205  16.2630653  28.3436728   0.4103528
  75.6952667  13.3258259  11.8674111  76.0982084  13.5145426  12.7149117
  76.1933279  12.5833893  11.5254188   4.9974248  17.6310039  19.6671426
   5.3009480  18.1480026  20.4133439   4.4958106  16.9162142  20.0591755
  14.9147940  54.8510838  31.6518497  15.3629804  55.6960249  31.6897225
  14.2294908  54.9727154  30.9947371  30.7987070  25.0680232  12.5939155
  31.0094643  25.7832360  11.9936812  31.6245627  24.8774171  13.0387306
  23.6801887  24.7421169  22.3095322  23.9628696  23.9631295  22.7885962
  23.4487653  25.3721404  22.9919887  78.1953382  22.9482245  25.9989071
  78.8711929  23.5471034  25.6814241  78.2411766  23.0191350  26.9523764
   6.1661744  42.8514290   1.6612414   5.8641237  41.9567680   1.8180375
   6.8952024  42.7541876   1.0486284  17.1211183  27.4808502  49.2418337
  16.8522823  28.3325815  49.5860910  17.9075766  27.2585177  49.7401190
  10.3201842   2.3431933  34.2864752   9.8335594   1.5353823  34.1225553
  10.9228528   2.4141642  33.5462141  36.4402628  67.1475029  63.9356184
  35.9099746  67.9422665  63.9936733  37.1936536  67.4006844  63.4021997
  17.5137877  12.0688915  14.3740702  16.9065332  12.0607400  13.6342001
  16.9920576  12.3921728  15.1085901   3.1668982  55.3471375   3.5709146
   3.3783969  54.5724058   4.0917742   2.3728731  55.1056623   3.0940023
  35.9661698  30.0449705  14.9448407  36.7782283  29.5849419  14.7323096
  35.6360698  29.6000099  15.7254004  30.6452322   4.7926623  30.1316094
  30.3123879   5.3874189  29.4595146  30.1176691   4.0001240  30.0326490
  35.4487348  19.3186438  51.9994640  34.8763204  19.4443560  51.2426519
  34.9769950  19.7247183  52.7266455  35.0984025  13.1534016  13.9319909
  35.4920793  13.2785189  14.7954702  35.2724791  13.9725673  13.4684217
  69.6794033  73.9265251  21.0066938  70.2007866  73.5010242  20.3259993
  69.1443157  74.5646429  20.5347610  19.9666166  37.8017902  34.4111109
  20.3258991  38.6636901  34.2006922  19.2796957  37.9790235  35.0537300
  66.5765095  74.7545576  21.4501452  66.8577194  74.9801826  20.5634403
  66.7519999  73.8166189  21.5256906   1.8982182  15.9638429  22.2404861
   2.2782546  15.5524063  23.0167103   1.3915166  16.6999793  22.5834012
  18.7187338  18.5379887  29.1842222  19.3004608  19.1391098  29.6494937
  19.0575647  18.5214925  28.2891512  13.0962253   8.6978072   5.4547894
  13.1823123   9.5526439   5.8767778  12.5427747   8.8622355   4.6913189
   2.4699099  11.2242055  30.3406882   3.3972466  11.1617208  30.5695415
   2.0705462  10.4551125  30.7471824   6.2239414  14.3394101  19.2837942
   6.8227780  14.2420495  20.0241637   5.3562343  14.3979120  19.6836615
  31.3414216   6.4282155  22.1033549  31.5793490   6.6644186  22.9999208
  31.5567875   7.2042549  21.5860415  13.2031107  35.8082509  31.2545490
  13.4852636  36.3591909  31.9846773  13.4519410  36.3010120  30.4725623
   4.6205613  44.2849493  46.7188740   4.9683034  45.0083733  47.2403765
   3.7552506  44.5847702  46.4403486  63.8063247  77.5077288  64.8918152
  63.0688042  77.0573934  64.4801188  63.9962882  76.9902930  65.6743813
  24.2246294  24.9056005  13.7615812  23.8537979  25.6467652  14.2405283
  24.5806861  25.2915812  12.9612851  23.8992953  13.4310842  12.2137415
  23.5774899  13.6845469  11.3486218  23.1149220  13.4003329  12.7615058
   1.9196174  20.0332475  11.0567594   1.1019385  20.4752660  11.2853444
   2.6029831  20.6691074  11.2687147  43.6404228  36.1503482  11.3050508
  43.3730030  37.0496774  11.1155140  43.9675903  35.8166504  10.4696834
   7.0467049  19.5886278  16.9011545   7.8948444  19.3457901  17.2725320
   6.9783902  19.0690899  16.1001265  12.0549536  40.3861904  32.6858807
  11.9640791  40.5547667  33.6237264  12.9859734  40.5192137  32.5077271
   0.6765281  32.2550893  14.2644501   1.0441794  32.3166156  15.1460838
   0.4786587  31.3253641  14.1518068  18.5523546  43.5516310  19.3563962
  18.6192870  42.9388475  18.6241078  18.2305169  43.0203247  20.0846577
  35.4906392  21.5447545  16.1759353  35.8856487  21.4540482  15.3087723
  34.6229553  21.1506438  16.0862923  40.3057384  47.0699406  18.8993633
  40.7057858  46.2307692  19.1273701  40.1318264  47.4892092  19.7420979
  27.6951337  36.5095186  27.6531720  28.2929778  36.0676265  28.2561183
  27.8087068  37.4408340  27.8428769   6.9559175  12.8477788  54.3049717
   7.1281785  12.8777122  55.2460718   6.5897214  11.9760132  54.1561222
  45.0239944  65.0211048  11.1462522  44.9520731  64.1879416  10.6805241
  45.1895285  65.6662655  10.4587960  20.7030702  46.4112616  18.0084467
  19.9983621  46.4535522  18.6548448  21.1371469  47.2620583  18.0713487
  35.3600669  63.3327341  41.9501162  35.9630895  64.0350199  42.1938133
  35.9242892  62.6432896  41.6000414  53.3647299  65.2310991  59.2189980
  52.6961136  64.6740913  59.6176577  54.1717005  64.7203732  59.2837477
  20.5547166  31.2603784  36.6602898  20.8631444  30.4928827  37.1420097
  21.3321233  31.8102336  36.5626764  17.8665245  35.2990532  23.0475903
  18.1020010  34.9762011  22.1777916  17.4364972  34.5558429  23.4706140
  19.1305256  74.5474148  56.8302631  18.4240746  73.9015579  56.8246984
  18.8332438  75.2223015  57.4404907  25.8360696  50.8280373  17.1307671
  25.8457255  51.7690945  16.9559932  26.7458797  50.5537224  17.0157552
  30.1352024  44.9950981   2.6278839  30.2860212  44.4415045   3.3940548
  30.3520250  45.8789444   2.9245940  41.5489149  48.4954405  33.7207198
  40.8933163  49.1344976  34.0000510  41.3131380  48.2902670  32.8159857
  13.0506933  57.2756815  52.6348686  12.3262858  57.6228333  53.1553984
  12.6302302  56.8911934  51.8657017  76.9935703  40.4172897  13.8345456
  76.5361214  39.6745372  13.4404778  76.9031000  40.2812815  14.7777045
  21.1952376  32.3147964  30.4141641  20.6824970  32.1112180  31.1963964
  21.0767126  33.2562685  30.2884102  34.4984698  27.7547026   3.0322134
  34.0009212  27.2369528   3.6651519  33.8607764  27.9838276   2.3561367
  27.9591870  31.8212795  13.4651530  27.6793647  32.5328922  12.8893566
  28.8769484  31.6746783  13.2361257  17.7415705  53.9697695  28.5239148
  17.9099429  54.3646526  29.3794560  17.4655187  54.7017908  27.9723978
  41.6293669  32.0515823  17.1595645  41.7145252  31.6563463  18.0271852
  42.4366426  31.8094468  16.7057884  29.8779535  61.2165403  13.3222127
  29.2563295  61.8502808  12.9641831  29.4322824  60.8487463  14.0853238
  26.9588065  49.7363424  14.1203201  26.0336447  49.8446417  14.3407321
  27.3776555  50.5326319  14.4470119   0.9518348  38.4647727   6.0523051
   1.4034237  38.7362409   5.2531779   0.3406268  37.7870607   5.7635760
  34.8838687  40.1581621  18.1526697  35.5692601  40.1604700  17.4844885
  35.0864005  40.9124088  18.7061357  44.5844221  29.9479032  23.4275556
  45.3272820  29.9757051  24.0305638  44.0404987  29.2295337  23.7505507
  70.1254559   5.5187821  63.0716896  70.6530046   4.8604327  62.6194715
  70.7282734   6.2470233  63.2217073  20.9571981  27.7767396  30.5443740
  20.7365394  27.3043990  29.7416067  20.2914286  27.5017738  31.1747527
  37.6506162  60.5305481  32.2519803  36.6986752  60.5968666  32.3271084
  37.8030658  60.3000450  31.3355398  37.7840543  21.6115117  21.2060285
  37.2990847  21.7514420  20.3927302  38.3102918  22.4042201  21.3105106
  19.5855665  25.6613040  38.1619740  19.5677865  24.8449349  38.6614323
  20.2489614  25.5151081  37.4876118  43.5398960  45.2780771  20.9828520
  43.5078478  45.3418684  21.9373870  44.4732237  45.3054428  20.7721782
  16.6990721   7.4904239  64.4724560  17.0943749   7.2037524  63.6491776
  17.2179794   8.2505751  64.7353935  18.5962033  42.9782009  29.4342780
  18.1615198  42.1568203  29.6636701  17.8926706  43.5378122  29.1054797
  35.2875757  42.4800825   4.3707067  36.1773729  42.5545931   4.7155803
  35.3137779  41.7083168   3.8050851   7.4131656  76.2421846  34.8485255
   6.6228366  75.7052708  34.7907519   8.1084335  75.6220961  35.0683665
   9.5707083  30.5712581  18.8416159  10.4508710  30.3012156  18.5796559
   8.9862478  30.0356770  18.3051550  33.2934856  33.9065790   0.3839842
  33.5162520  33.8654661   1.3139933  33.0447793  33.0104494   0.1574279
  80.3801632  49.4050360  20.3541517  79.5633841  49.0399027  20.6944132
  80.9187126  48.6399364  20.1521039  21.6784453  55.8392382  10.8714592
  20.9939790  56.3314629  10.4181898  21.8363237  55.0783539  10.3125679
  33.3096552  44.9256420  30.5225611  33.2987380  45.4905176  31.2952352
  32.4975133  44.4225454  30.5821705   6.7558986  44.1977692  17.9159737
   7.5935036  44.2231798  18.3785796   6.1973023  43.6447191  18.4621739
  17.6506984  34.0655494  29.3262458  17.6260984  33.5792279  30.1503325
  17.5380933  34.9803400  29.5845342   9.4443017  68.9740896  15.1346219
  10.2512908  69.4739962  15.0117671   9.0135086  69.0009403  14.2802632
  39.9622941  40.6507540  19.4333744  39.1644764  41.1746311  19.5059812
  39.8026919  39.8922324  19.9949813   3.4760308  29.5312667  60.6691647
   2.9184613  28.7719226  60.8387089   4.3571481  29.2380238  60.9012699
   9.3744290  27.9619718  21.7418289   9.3016988  28.7374592  21.1854482
  10.1951241  27.5497603  21.4720631  11.2720764  40.9586287  16.1846924
  11.1182833  41.8080473  16.5983009  11.5563726  41.1728621  15.2961469
  12.2452807  42.2310352  19.1104472  12.6984489  42.3775578  18.2801449
  12.1251035  43.1076241  19.4756603  20.1031828  42.3419046  32.6040459
  19.3263924  42.7949905  32.2761083  20.7854915  42.5418329  31.9631743
  49.9545431  18.4857941  16.0806739  49.1080952  18.0609262  15.9419739
  49.7381067  19.4043696  16.2406898  18.6179459  28.7679148  24.4788456
  18.0798066  28.6775303  25.2652717  18.9620411  27.8886271  24.3217278
  23.5495234  50.6071424  18.7245286  24.2671394  50.6846046  18.0958331
  23.8441277  51.1054325  19.4868588  22.6023221  58.0471087  30.5436707
  22.9521489  58.8050890  31.0119915  23.0366921  57.2952700  30.9465241
  10.5762017  45.9983397  31.7240357  10.5261207  46.5019226  30.9115529
  11.0418403  46.5716887  32.3328733  23.2749844  41.2948036  22.2822857
  22.3785567  41.6014910  22.1459341  23.7589526  41.6254187  21.5255141
  65.1070309   5.0098795  61.6938353  65.6352949   5.3436017  62.4189568
  64.2162085   4.9756521  62.0424032  45.5508137  72.8741360  63.1530142
  44.9401140  73.5020971  63.5389471  45.5295706  72.1235514  63.7466526
   8.8003725  42.8294134   7.8871500   9.3541926  43.3688545   7.3227751
   7.9393625  42.8514528   7.4695283  42.0587492  49.3561888   7.9558241
  41.6467714  48.4930325   7.9174006  42.7137947  49.3402100   7.2580487
   7.2908199  19.0488756  13.9482021   8.1072700  19.2001343  13.4720075
   7.0767391  18.1327879  13.7716103  19.5072317  38.6245561  22.1643090
  18.7223446  38.3713245  22.6501679  19.8833025  37.7957082  21.8679738
  31.1356068  43.4033489  30.3258491  30.7345843  42.9867458  31.0886431
  30.4244518  43.9022923  29.9239206  11.1565566  50.5576754  22.3683715
  11.6660345  49.8871517  22.8234100  11.1401451  50.2680731  21.4561796
   7.9778641  24.7276616  35.2874041   7.1136862  24.8870325  35.6669164
   8.0311221  25.3350496  34.5495200  29.0853405  36.4257932  20.4644823
  29.9558997  36.0278511  20.4641414  28.4855604  35.6896973  20.5855441
  32.0324802  32.6115179  28.4589863  31.9937754  32.0812702  29.2549562
  32.8729010  32.3848319  28.0608153  37.2943258  40.6756878  21.1407256
  37.6696682  39.8153758  20.9530783  37.0860696  40.6476307  22.0745730
  41.1647558  44.6152449  19.9241829  40.7093573  44.3286419  20.7158303
  42.0337868  44.8762321  20.2289820  29.2100501  26.6114402  30.9968400
  28.8991141  26.3439178  30.1319790  28.5015821  26.3669491  31.5922618
  26.6175318  49.9248695  23.0843139  26.1255765  49.4965744  22.3837614
  26.3865781  49.4347429  23.8734055  12.5451720   0.8938228  54.3880033
  12.5838923   0.1881835  55.0336075  13.3574557   1.3830112  54.5188522
  34.9303079  30.0719285   1.3263240  34.3742681  30.2246356   2.0903474
  34.3430376  30.1771688   0.5778142  10.8732677  55.4183722  22.2337103
  10.0886762  54.9890137  22.5747371  10.9947813  56.1802769  22.8002524
  13.7575722  56.0661316  18.7515187  14.4394159  55.4335499  18.5253406
  13.6951232  56.0201263  19.7055697   3.9587507  11.9588757  66.2884474
   3.3782142  12.2094750  67.0070601   4.8326111  11.9485974  66.6789484
  24.5146418  61.4460897  29.4106579  24.9908423  61.9651985  28.7625909
  23.8397598  60.9927797  28.9054108  26.2674022  39.4190693  33.4237027
  26.6597629  39.1642022  34.2587638  26.0250401  38.5905337  33.0101585
  18.7127542  66.5114260  11.2766087  18.2844377  66.4077425  10.4268861
  18.8122833  67.4577188  11.3807786  53.7171650  58.9579248  64.8820400
  52.7966595  58.7030506  64.8192358  54.1516352  58.1945467  65.2624702
  21.9296193  49.2645025  15.3970814  22.4432087  49.9034739  15.8912241
  21.0191083  49.4914007  15.5860698  16.2157452  19.3488479  28.7947679
  16.5943134  20.0349855  28.2451034  16.9627118  18.9806199  29.2666602
  53.2786465  58.7193775  12.8277147  52.7434921  59.5127678  12.8082240
  52.6700211  58.0261660  13.0831957  15.1352906  36.4086366  18.8579297
  14.3270695  36.1945510  18.3919060  15.3805947  35.5949068  19.2982709
  23.7062883  47.2242641   4.9523202  24.6599197  47.1502447   4.9156973
  23.5475755  48.0842352   5.3415412  48.1155205  70.2403927  64.3560076
  48.8010359  69.8433256  63.8187599  48.1735516  69.7829914  65.1948452
  49.1471195  43.8600016  13.9369452  49.2237473  44.1906214  13.0419314
  49.3776321  44.6073008  14.4888890   5.1193833  46.2597132  22.0326495
   5.4141200  46.6690207  21.2191176   4.2874134  45.8450317  21.8044043
  32.8532410  43.6026001  19.3318987  33.4790206  43.2925701  18.6772919
  33.3968067  43.9864826  20.0199437  34.6857953  49.9623156  11.1152577
  35.0122666  49.6227789  10.2819729  33.7792253  50.2104044  10.9341156
  26.9161487  33.2973123   4.3383783  26.2959981  33.2765055   3.6095345
  26.3783503  33.4961104   5.1048529  60.5564260  76.6761208  15.0458372
  60.7717896  76.5126276  15.9640539  60.9592724  75.9484339  14.5721054
  26.9523907  71.5938520  37.6548576  26.2573910  71.6568279  36.9996929
  27.5979686  72.2460508  37.3826504  20.8731842  35.5938911  33.2958865
  20.5831432  34.9221563  33.9130378  20.6654286  36.4221859  33.7283182
  36.6791558  55.5258608  30.3465724  36.8377972  54.8651743  29.6723628
  37.3948431  56.1526299  30.2408195  19.7217095  45.4660225  29.6292448
  19.5992684  45.8345842  30.5041170  19.3584239  44.5824337  29.6885872
  74.1649199   9.9300361  61.3749218  74.2734432   9.1907674  60.7766485
  74.6279669   9.6649843  62.1696377  46.3404322  69.1893625  26.1166668
  45.6037712  69.6260977  26.5442467  45.9330082  68.5689831  25.5122089
  71.1373711  21.5812469  47.8258801  70.8131599  21.9839025  47.0202875
  70.6011152  21.9665289  48.5188580  44.4377851  48.7358189  16.1505949
  44.4306135  47.7963686  16.3339257  43.6190414  48.8944244  15.6807733
  34.5427203  47.4671745  20.7014585  34.3236375  46.5460968  20.5605555
  35.2715969  47.6341248  20.1038837  14.5954168  36.2471700  26.6103411
  15.0915790  37.0249248  26.3550901  13.8804531  36.2001991  25.9756351
  41.0297918  27.6956367  21.4419436  40.7600069  28.4705162  21.9349051
  41.9812822  27.7745247  21.3735938  10.4881072  36.1593413  30.1089287
  11.4236164  36.1251068  30.3086352  10.2744615  35.2753949  29.8102188
  30.9655762  58.0648327  15.1068425  30.1140499  57.8431511  14.7300267
  30.7979250  58.8453817  15.6349206  32.4751663  30.2866793  14.7926939
  32.3310256  29.3556190  14.9617636  33.2127428  30.3080130  14.1829765
  10.0481844  27.6826882   6.1132646   9.5235097  26.9023752   5.9342116
  10.8845961  27.3414612   6.4298254  20.2569985  45.0932074  23.1580043
  20.0881195  45.6852579  23.8909340  21.0626554  44.6364069  23.3998394
  69.7376919  18.7829804  48.3757257  69.9265337  18.5398686  49.2820740
  70.2792025  19.5562339  48.2173586  51.1987400  56.1193943  24.6782684
  51.3000584  55.7148886  23.8166785  50.2549362  56.2477636  24.7731066
   7.5837612  51.2067413   3.9380586   7.0233452  50.5170774   3.5823542
   7.4729705  51.1400318   4.8864821  33.4378147  28.1354046   8.7410223
  32.5716424  27.8640223   9.0448785  33.2606626  28.7245035   8.0076671
  49.5142078  52.1586752  18.4989357  48.7655020  52.5643444  18.9360881
  49.1251469  51.5248394  17.8963435  58.0669308  71.1492109   7.8935373
  57.2802544  70.9910679   8.4154177  58.6852264  70.4782438   8.1829345
  34.5639729  57.1697474   7.1683002  34.8831987  57.5233746   7.9985261
  35.3577662  56.9665527   6.6734904  66.8478680  18.4381759  34.4620800
  67.7469063  18.1128681  34.5082736  66.8721485  19.1138148  33.7844706
  18.5281408  34.0054798  61.8769360  18.8532674  33.1461859  61.6083527
  17.5776303  33.9000010  61.9173813  25.8399081  42.5993681  28.6345053
  26.2298036  41.9016933  28.1077552  25.2921319  42.1408224  29.2716169
  31.1776233  30.3703856   9.5620596  30.5226779  30.1449895   8.9013964
  31.7059493  31.0550332   9.1517431  34.4504905  18.1629539  17.9733741
  34.2959690  17.2592664  18.2485187  35.2762365  18.4033906  18.3935702
  17.4357450  42.3500395   7.0333374  17.6453710  41.9444227   6.1920524
  18.1966877  42.1661282   7.5841308   2.1285376  40.2811527  24.3382072
   3.0427772  40.5624819  24.3028283   2.0706277  39.7546864  25.1355195
  47.0832968   8.0378383   1.5927935  46.6948032   7.2175032   1.8966967
  47.8191280   8.1886458   2.1861257  25.3069019  26.8555808  35.2304983
  24.6723032  26.2631059  34.8273945  25.8965588  27.0969677  34.5161653
  77.7199650  40.1915359   9.7604668  77.7007437  39.3324757  10.1822197
  77.3355532  40.7841492  10.4064345  66.4390659   4.8297355  49.4590473
  65.6341028   4.3832031  49.7214794  66.2487888   5.7594991  49.5838070
  46.5058184  67.2345972  66.5584087  46.4733744  68.1168890  66.9281960
  47.2786903  67.2398472  65.9937143  13.2582128  21.8370342  14.7864079
  13.1915164  22.5512052  15.4202425  13.1394017  21.0427332  15.3071761
  11.0138428  34.5789433  12.8287649  10.3125238  34.7164011  12.1919858
  10.6263232  34.8250103  13.6687112  34.1669822  22.0757389  29.4114256
  34.7533226  22.0879483  30.1679230  33.9877605  22.9988074  29.2323828
   2.7970827  40.9727240   4.0489417   2.9563984  41.6203213   4.7355789
   3.0653602  40.1402855   4.4379151  29.6577358  49.2037630  29.5706940
  30.0124764  49.2839622  28.6852789  28.7854695  48.8297319  29.4462729
   1.2051723  35.6385350   6.7334241   0.3427289  36.0524368   6.7667264
   1.0286707  34.7065353   6.8617076  27.6675725  48.4118128  19.1025591
  26.7416644  48.4856367  19.3338048  27.6705217  48.3309078  18.1487882
  26.9459105  15.4633033  25.5514455  26.5882111  14.5755208  25.5626464
  27.8093791  15.3685653  25.1493526  69.9368668  32.2881627   6.8388081
  70.4744053  32.7741313   7.4642044  69.3541861  31.7594147   7.3839134
  38.7670016  38.3169651  28.3487749  39.6042323  38.3275080  28.8126326
  38.2640576  39.0278625  28.7461472  21.5361691  60.0890303  10.0988042
  22.0532131  59.8265791   9.3372154  21.6785908  59.3902826  10.7373190
  49.0780210  37.4598241   8.0048674  49.5667744  37.1925259   7.2264695
  49.6013165  38.1649995   8.3858186  27.6040769  57.6641130  28.1773543
  26.8224430  58.1348848  28.4665895  27.6997209  57.9024553  27.2552490
   6.6310668  19.8171365  56.0497713   6.3783634  19.0795493  55.4944897
   5.8450270  20.0135422  56.5594721  17.8473425  36.2557459  10.6819439
  17.1108890  36.5578365  11.2135541  17.5329709  36.3177085   9.7799671
  43.3573389  59.9281454   7.4479997  42.9263115  59.5394087   8.2091367
  43.8294029  60.6829596   7.7996278  25.5588174  29.6503949  17.1475148
  25.6656742  28.7036395  17.2395444  26.4163089  29.9610877  16.8569827
  50.5299473  73.6183167  61.4176750  49.8335457  74.1373014  61.0152960
  50.0693369  72.9873371  61.9707870  52.5636768  70.0896215  63.4875679
  52.1165514  70.8661318  63.8242292  52.4116659  70.1164150  62.5428915
  24.6326232  49.1611814  21.3954949  24.6763134  48.5359764  20.6719995
  23.7972522  48.9739895  21.8236876   0.9350702  34.1354036  23.6519551
   0.9638247  35.0337529  23.9811611   1.3131672  34.1897321  22.7742743
  73.0279064  58.4732819   7.5404131  73.9657927  58.2823896   7.5278658
  72.6756144  57.8987408   8.2201356  75.7982445  63.1834269  65.3561163
  76.4680815  63.7953901  65.0510645  75.3571081  62.8936100  64.5575953
  21.3191700  53.0600739  32.9920030  20.5245137  52.5846148  33.2342744
  21.2125301  53.2450342  32.0589161  49.8735571   8.4941131  27.4073648
  49.9498701   9.4316930  27.2303009  50.7747364   8.2021981  27.5448275
  12.9081690  26.4671302   5.7414973  12.9587758  25.8545280   5.0077486
  12.7528238  25.9126806   6.5061438  25.1815057  47.5981474  30.8958316
  25.5754662  46.7544985  31.1178398  24.5399833  47.7527857  31.5892053
  28.1225538  32.6264286  39.7266436  27.8850818  31.7847323  40.1157236
  27.3876166  32.8404999  39.1519475  66.4289618  63.5685778  66.4561272
  66.6796350  63.0993128  67.2518539  66.9146872  64.3921757  66.5006971
  64.0164280   6.0519207  59.5967817  63.2237482   6.4302868  59.9772215
  64.4559669   5.6265354  60.3330421  70.6302834   0.8625748  65.3201866
  70.0789928   0.4852077  64.6346903  70.4805708   0.3036757  66.0827112
  22.8202605  34.4028902   4.1622269  21.9314742  34.2056656   4.4578502
  22.8752351  35.3581262   4.1892731  24.7288585  46.0120010  33.2977033
  24.0275168  45.9650230  33.9474297  24.5213580  45.3190947  32.6707625
  36.9678020  36.0156512  27.2994399  36.7496085  36.2762356  26.4046097
  37.1391797  36.8404007  27.7540326  29.8827839  26.2641001   4.2143965
  30.7271075  26.0309458   4.6003848  29.3634415  25.4621053   4.2720172
  52.7146196  65.2252293  18.5506749  53.5137272  64.7611380  18.3011079
  52.6520729  65.1021624  19.4978678  23.2392311  31.8329573  28.8152599
  24.0729260  31.6180038  29.2335653  22.6763463  32.1175218  29.5352697
  20.8480239  63.1872702   5.6650370  21.5681577  63.3547354   6.2729800
  20.1082253  63.6723137   6.0306400  25.0335550  40.2748442  16.4095461
  24.4017076  40.9280968  16.7099798  25.2105713  40.5135727  15.4996526
  14.7388077  41.1870670  32.1016908  15.4604125  41.7307854  31.7856407
  14.8848343  40.3339720  31.6928601   5.8261526  43.1270504  27.4753451
   5.8991313  42.2087002  27.7352238   6.7312694  43.4344244  27.4251699
  14.6890438  32.7201033  15.1582670  15.0248528  33.3818388  14.5536435
  13.8228977  32.4999285  14.8154175  49.9661255  60.9830523  65.7928991
  50.2385473  60.6241083  64.9484015  50.4329014  61.8159485  65.8609390
  44.1416502  31.9400954  21.3793516  44.8817682  32.5437832  21.4427280
  44.3348312  31.2561703  22.0205688  50.4900026  38.0100536   3.5944510
  50.5237150  38.9544940   3.4423748  51.2324810  37.6613641   3.1011206
  23.0210066  37.0708728  22.0409632  23.7315845  37.2440004  21.4234376
  23.2616735  37.5616503  22.8267431  29.2749667  34.8321152  10.8835363
  29.6850157  34.7213864  11.7413414  28.4839678  34.2946839  10.9250116
   9.4600481  65.1695395  18.9068830   9.9025089  64.8378897  19.6882081
   9.2800820  66.0884666  19.1054285  36.2786293  55.4018450  14.7718811
  36.6689944  55.3392506  13.9001417  36.0264158  54.5037413  14.9864197
  24.4278646  56.6118097  21.3855386  23.6991262  56.0038137  21.2609768
  24.2244530  57.0650768  22.2037101  26.0432291  27.3648643   8.0798244
  25.8538175  28.2967353   7.9704189  26.5151906  27.3123479   8.9109236
  35.5345559  42.0837450  19.8127878  35.8047247  42.9850769  19.9883997
  36.3009572  41.5559626  20.0370789  30.1323581  43.8070011  21.4970207
  30.4491758  43.0398035  21.9737411  30.5417109  44.5501947  21.9401073
  27.3738384  34.5782924  14.7836792  28.1864119  34.3875647  14.3150866
  27.2930336  35.5312872  14.7449219  43.9208317  32.7690578  33.1873465
  43.4745884  32.1088290  32.6570678  44.6634150  32.3044372  33.5732627
  28.6287189  14.8215759  12.1411860  29.4530916  14.4503331  12.4555397
  28.8660669  15.6893349  11.8142450  45.6866741  64.5498228  41.9045782
  46.3973713  64.4160891  41.2774849  46.0245562  65.2070665  42.5129366
  63.8080978  27.7443552   9.2119771  64.5211124  28.3654809   9.3604547
  63.0657244  28.2896686   8.9517069  16.0586798  51.0076571  30.3483105
  16.4326274  51.4993334  31.0795045  16.7629373  50.9680128  29.7012544
   9.3344736  21.0177088   5.5134171   9.3283010  20.0628734   5.4464597
   8.4422427  21.2795115   5.2862287  22.1088052  17.1539593   1.0792682
  21.8365788  17.7467811   0.3787785  22.9065728  16.7418003   0.7477156
  28.1601095  47.9009771  38.5936999  27.2250915  48.0962133  38.6557531
  28.4756255  47.9509640  39.4960213  32.8721333  60.5112600  62.1529150
  33.0866265  61.0243368  61.3738298  33.7214637  60.2531242  62.5110197
   9.0922743  32.5336790   4.6774176   9.1196150  31.5828824   4.5703065
   9.2026430  32.8778267   3.7910703  52.7472544  19.6778512   4.6341476
  52.8320074  20.5524254   4.2544490  51.8474150  19.6438432   4.9587533
  28.1532097  29.8254800  31.3737845  28.8508797  30.1097536  31.9642711
  28.1934452  30.4408693  30.6417251  13.3568251  29.0552735  35.1011395
  13.5158896  29.3644929  34.2093349  13.9617586  28.3217573  35.2117777
  18.6622632  48.9864922  10.9699762  18.9012456  48.0739975  11.1327004
  19.1746020  49.4853830  11.6062510  25.5079365  56.6352224   6.8550676
  26.2484622  57.2119141   6.6672438  24.9667239  56.6758490   6.0666060
  71.1919928  35.7391357  46.0645533  70.4053497  36.0244465  46.5293312
  71.2240791  36.2938023  45.2851009  64.9877072  22.9240694  66.8405326
  64.7517598  23.8517322  66.8382719  64.9215937  22.6578798  65.9234696
  15.2625442  34.8883915  40.5618143  15.5911851  35.2331257  39.7315240
  14.7577977  35.6096649  40.9376192  80.1426411  76.8553972  60.9137249
  79.2019129  76.7387342  60.7808781  80.2503777  77.7967119  61.0499525
   2.3869032  62.8788280   9.8052251   2.0028698  63.6927462  10.1312363
   3.0297107  63.1610680   9.1545576  47.9984760  77.0372438  64.6846437
  47.6498795  77.0223713  63.7933016  47.2444153  76.8394089  65.2400589
  27.6190209  54.5183134  28.4495473  26.8683529  54.4292831  27.8623486
  27.6580358  55.4538488  28.6482573  34.1775370  49.4678259  29.1099715
  34.2613840  50.1738453  29.7508597  34.7224259  48.7621593  29.4583392
  29.7740316  41.9804668  32.2550511  29.6022439  41.9149685  33.1944299
  28.9127445  42.1261215  31.8636441   2.2706194  27.1300006  66.2211227
   2.6277167  27.5151563  67.0213556   1.4419684  26.7361450  66.4939737
  51.4403152  75.1014757  58.1822443  52.2145414  75.0077009  57.6272583
  51.5443420  75.9585142  58.5956430  59.2534876   7.6179844  66.4216328
  59.4200468   7.3993093  65.5047512  59.5546722   8.5221869  66.5107346
   8.8368320  30.1838160  32.8769588   8.2591724  30.5520344  32.2084093
   9.4964528  30.8618259  33.0233645  17.1748507  33.5712814  32.3197556
  17.9971170  33.1871676  32.6240039  17.1504641  34.4376779  32.7259541
  41.3437176  76.2550974  66.9526386  40.7639313  76.8668556  66.4989519
  41.2990427  75.4525423  66.4328861  23.3907747  48.7453175  32.8347015
  23.0617952  48.4953690  33.6981416  23.5477018  49.6871948  32.9016256
   9.6740645  43.6720943  33.1138349   9.1296983  43.4653759  32.3541212
   9.9658215  44.5710087  32.9619527  13.5897839  26.7995763  14.3081582
  14.0203714  27.6313615  14.5055437  13.3903658  26.8490362  13.3732688
  36.0732341  36.9596338  24.9740028  35.2868629  36.4642882  24.7449064
  35.8020997  37.8762436  24.9235177  47.6393890  40.4514217   6.0966015
  47.4026155  39.5483112   5.8855033  47.1635818  40.9798098   5.4557830
  35.9162402  61.1718416   0.5552576  34.9923015  60.9217501   0.5506299
  36.1090755  61.3591433   1.4739335  36.5732217  64.3023491   8.6996073
  36.0810542  65.1052666   8.8708746  35.9491324  63.5974264   8.8723058
  14.8276031   5.5254716   2.9635614  14.8032033   5.8379352   3.8679963
  13.9073396   5.4510969   2.7109441  58.7706804  57.8462696  57.6104355
  59.3774843  57.2092199  57.2333479  59.1797161  58.6952066  57.4424362
  76.2950850  76.0972595  61.6007423  76.4951038  76.0558176  60.6655884
  76.3495588  77.0282793  61.8162918   4.9658728  31.7356348  48.8204765
   5.0247246  30.9435129  49.3546200   5.5758452  32.3478675  49.2319870
  33.4927130  66.2647390  47.6238918  32.8728938  66.9796801  47.4792671
  33.0644846  65.4964352  47.2463274  39.4998264  56.5910482  32.2214246
  40.4382324  56.6843319  32.0573354  39.2677832  55.7553434  31.8164778
  20.5068612  50.2302885   8.1517172  21.2967753  49.8929167   7.7292860
  20.7081652  50.2097225   9.0872836  59.9876690  64.7339344  11.9302893
  60.9285259  64.6775770  12.0971608  59.7931957  63.9656830  11.3934445
   2.4954250   6.2260920  63.4825802   1.9336250   5.5072415  63.7721777
   1.9534834   7.0087624  63.5823727  41.8821621  30.9645820  19.9631393
  41.4502048  30.8506942  20.8097076  42.7825212  31.2030840  20.1838160
  34.6262288  58.2207346  31.1270976  35.3433537  58.0326748  31.7325711
  33.9992118  57.5119352  31.2709403  43.6206245  66.0731745   4.2377812
  44.4318628  66.0142612   3.7331435  43.2554865  65.1888466   4.2083430
  47.5732994  53.2479334  20.0189614  47.2980452  52.7940369  20.8154821
  47.0767593  54.0662384  20.0258541   5.5518824   6.2874126  52.6893950
   4.8931020   5.8076739  52.1873093   5.2675593   6.2032241  53.5995102
  39.8039365  45.4904222  34.7530079  40.4546356  44.8840094  34.3993282
  40.1803780  46.3581324  34.6060395   8.7112713  40.7421780  34.8284245
   8.6324733  41.5474510  34.3169951   8.7622327  41.0394239  35.7368755
  61.6799116  61.3165569  49.7896385  61.9175386  60.4063511  49.9665451
  60.7227421  61.3198423  49.7963095   0.1821771   4.1192809  38.1366563
   0.0838383   4.9467927  37.6657152   0.8590657   3.6468622  37.6520181
  75.1039457  42.4338102  52.4908924  74.9114418  43.3571053  52.3274660
  76.0496140  42.4085045  52.6368332  14.2484510   8.4377033  61.0388374
  13.8022161   9.2712325  61.1882830  13.9917076   7.8919393  61.7821074
  33.4397364  15.3083932  66.9714212  34.3854976  15.4323530  67.0514250
  33.2207727  15.6808054  66.1172581  17.7847803  64.5677137   4.1179740
  17.6451027  63.6369658   3.9435387  18.5642099  64.7923088   3.6097631
  31.7598391  58.8231516  20.3542328  32.6868439  58.9335775  20.5656624
  31.3560438  58.5558844  21.1799145  39.9373770  52.3740768  34.5934629
  39.2093182  52.9616690  34.7956872  40.4529572  52.3453569  35.3994322
  21.7513585  44.0311241  11.9194686  21.8334579  44.5756388  11.1365283
  22.4195504  44.3677616  12.5164807  22.5586796   9.2781913  48.5814285
  22.8538585   9.8394871  47.8644609  23.3292794   8.7594569  48.8123512
  74.7336340  40.3728867   9.0278894  75.2006054  41.1120033   8.6381745
  74.0349197  40.1752949   8.4041977  28.0798030  45.2706671  19.3265593
  28.5722184  46.0768843  19.4807363  27.5595880  45.4536533  18.5441744
  33.7846780  35.5126143  24.3570352  33.1867456  34.8843884  24.7620583
  34.2409086  35.0087976  23.6830521  78.5700130  46.7077065   5.4437101
  78.7027073  47.2890091   6.1925173  77.7901125  47.0520163   5.0084603
  45.8745384  44.4639444  18.1460547  46.5084314  43.9152575  17.6841486
  46.3967848  45.1789093  18.5098064  21.6487384  43.8029575  27.1510577
  21.3549137  43.0541277  27.6698613  22.1735215  44.3241596  27.7586603
  21.2765455  56.6265821  35.5725670  22.0093274  56.0396767  35.7591224
  21.0762119  57.0348120  36.4148498  29.8757935  55.8474970  11.3778841
  30.6850886  55.9953737  10.8885908  29.6139383  56.7183971  11.6765392
  31.8207765  53.8429785  20.1080370  32.3947668  53.4674644  20.7756853
  32.3399949  54.5427561  19.7118580  69.9234962  14.6324706  65.8341026
  70.6993151  14.6682572  65.2745867  70.1865005  15.0818837  66.6372776
  26.1214042  56.4627600  17.7263427  26.9937253  56.0834551  17.8331757
  26.0043216  56.5310287  16.7787862  80.3265285  49.9821901  31.6524434
  79.7308683  50.7314491  31.6465831  80.0980377  49.5007706  32.4475884
  46.2387276  51.5122461  22.2351980  46.3530445  52.1520567  22.9379106
  46.6005993  50.7000303  22.5895905  21.9691944  10.0758255  51.2682962
  22.2462010   9.6261436  50.4699945  21.0184717  10.1488328  51.1844587
  13.6783385  26.4522696  27.6946306  12.9042971  26.9854856  27.5135970
  14.2330956  27.0120573  28.2378721  26.1847591  73.9307165   5.6325102
  25.4574561  73.6611032   6.1933756  26.9679594  73.7484646   6.1517543
  34.9290633  51.7807961  21.4640903  35.1255846  51.5266228  20.5624223
  34.2394447  51.1763239  21.7384458  27.4650311  38.2363677   7.7189094
  27.9836941  38.6877775   8.3848298  26.5563989  38.4144807   7.9615974
  24.2920113  52.0565891   7.4851203  24.7999954  52.1609688   8.2896626
  24.7044039  52.6549768   6.8621457  14.7259808  27.6083589  19.3720603
  14.8245096  28.5216856  19.1030622  15.3325796  27.5079703  20.1056767
  30.8552909  40.7011604  26.2682748  29.9564052  40.4603004  26.0441709
  31.2468886  39.8900676  26.5923238  29.6435785  46.4715958  24.4580460
  28.8363910  46.2241697  24.9091125  29.3491268  46.8414307  23.6257267
  34.2757368  56.7524767  24.7758317  33.9259529  57.6429653  24.8060298
  33.5046053  56.1897421  24.8459387  27.6823258  31.4505315   9.2783552
  28.3560872  30.9640312   9.7533238  27.1763563  30.7771277   8.8236523
  24.3769073  36.8899870   4.2539197  24.8596263  36.5408850   5.0031471
  24.4349694  37.8402424   4.3532851  43.0703449  60.9204340  13.6208344
  43.4409571  61.7647076  13.8778841  43.8238382  60.4065990  13.3302307
  28.9122844  50.1561260  25.5387306  29.4455814  50.1137877  24.7449851
  29.0132546  51.0565615  25.8473730  57.6825666  76.5548134  17.3754537
  58.0622196  75.7086802  17.1385002  57.6291275  77.0334435  16.5482342
  21.4982772  56.7343712   2.2541262  22.2400331  57.3378944   2.2963934
  20.9268284  57.0065451   2.9721779  44.9887896  53.7103987  18.4569502
  45.1658678  54.4689846  19.0132082  44.3410349  54.0226555  17.8251719
  64.9402142  59.2951965  20.3457379  64.2701769  58.6205482  20.2355599
  65.7625341  58.8087702  20.4041815  11.3024127  42.9034901   8.9536566
  10.3562832  42.7792120   8.8786358  11.4779830  43.7071085   8.4641629
  57.8236723  70.3367662   0.6563981  58.2008410  70.0955868   1.5024535
  57.5654268  69.5032549   0.2629448  57.6702929  67.6745176  19.2756820
  57.5064039  68.5864449  19.0353441  57.7270889  67.6851320  20.2311373
  27.7509809  54.1508245  11.8609047  28.4200454  54.8012877  11.6476500
  27.2052336  54.1023970  11.0760188   9.7426403  26.6503382  60.2249146
   8.7954652  26.6099381  60.3570461  10.0917101  25.9518504  60.7785368
  15.6677020  65.2385044  23.8136339  15.2634120  64.3855906  23.9727569
  15.6511331  65.6741381  24.6657944  39.2874742  38.2259703  20.7124877
  40.1821136  38.0243444  20.9867096  38.7373042  37.6641011  21.2582421
  49.8181343  47.3999834  17.0500970  49.7736263  46.4952660  17.3595107
  50.1560736  47.8925562  17.7980280   7.9365402  14.9126160  52.3976612
   7.6313984  14.7042930  51.5146399   7.2014922  14.6818995  52.9657316
  54.4414282  51.3306427  18.1142890  53.7198067  51.8677139  17.7871132
  55.0821209  51.3313961  17.4031341  57.8559828   7.5294477  15.2506053
  57.4041605   8.3669412  15.3540099  58.4576082   7.4884909  15.9939778
  67.5533247  69.8052073  17.0023584  68.3512163  69.2768478  16.9813144
  67.1105719  69.6033287  16.1780751  39.1096234  39.5264792  13.2673573
  39.4493127  38.8884354  13.8948476  39.8243237  40.1526403  13.1517899
  28.1589007  42.3465109  14.7925031  28.8685846  42.4634218  14.1609085
  27.4106836  42.7942801  14.3976498   4.4472322   3.1368566  54.3813086
   3.6737221   3.6586237  54.1675949   4.5487198   2.5431910  53.6373377
  56.0247660  30.9717155  15.9162855  56.3380527  31.6472030  16.5177822
  55.6132650  31.4588380  15.2024162  19.1421986   5.8499575  54.8021603
  19.9650073   5.7844836  55.2868557  19.4068778   5.8695191  53.8824892
  11.9822979  40.9538889  29.9617720  11.6738486  40.9329224  30.8676696
  12.4322736  40.1175022  29.8425508   5.7188815  74.3807220  51.7253637
   5.9835494  75.1711321  52.1959305   4.7724980  74.4729853  51.6154718
   3.2763222  19.5798278  64.1682959   3.1611687  20.4340649  64.5845270
   4.0256208  19.6970105  63.5842991  41.8255377  44.9728537  14.2644763
  41.9044161  45.7360125  13.6921096  41.6693497  45.3408718  15.1341891
  25.5901790   2.2152910  39.2705369  25.1708770   2.6945627  38.5558915
  25.4901075   1.2937064  39.0319991  15.0228596  61.1879158   8.2370752
  15.8519220  60.8548927   7.8935891  14.6960902  60.4844046   8.7978983
  40.3747988  52.7001429   6.4245075  39.8415971  53.3122540   6.9317049
  39.8517132  51.8992949   6.3890898  55.7269287  63.6581850  57.0703554
  55.6289959  63.5776520  58.0191231  56.2789774  62.9164600  56.8227386
  41.7721462  43.5876989  33.7537074  42.7037048  43.7074995  33.5690951
  41.5673256  42.7220440  33.4002709  40.1463032  56.8297386  23.2768464
  40.2014923  57.6295948  23.7997341  39.2117453  56.7238426  23.0990219
  38.7486362  61.1627722  39.1373634  38.7385249  61.9793558  38.6380363
  38.1036711  60.6067371  38.7002444  44.7964144  53.2502890  29.5402503
  43.8920593  53.3956051  29.8182058  44.9140692  53.8357496  28.7921715
  77.6646233  72.3511744  65.6458282  77.0099831  72.2548580  64.9541664
  78.5044670  72.3024178  65.1891947  45.2750206  76.6562653  14.7826672
  45.6336498  76.6579866  13.8951910  46.0011339  76.9459724  15.3349829
   4.5217308   8.7323594  65.0623941   3.6182633   8.5258967  65.3018761
   5.0460213   8.3861554  65.7845402   4.7504735  40.6330109  25.3426242
   5.5123961  41.1171293  25.0242853   5.0025868  40.3380442  26.2176466
  18.5310328  55.6173277  12.3820353  18.3752596  56.5159988  12.0916009
  17.9384768  55.0872374  11.8490088  37.4619460  43.6044455  17.0010126
  38.0931449  43.5686445  17.7197170  37.2611690  42.6876783  16.8126857
  30.8724642  31.6741681  13.2092142  31.4696932  31.1200428  13.7117040
  31.1155987  31.5218520  12.2960234  38.1565690  67.2480917  11.3614118
  38.7267232  67.3749781  12.1197343  37.3482370  66.8886566  11.7269826
  48.5222816  76.4604616  57.6824951  49.4706774  76.5022039  57.8051043
  48.2848787  77.3275471  57.3538065  15.3739595  21.8961406  53.8846254
  15.6106639  20.9956717  53.6624622  15.1008272  22.2840571  53.0532694
  26.2389135  24.1045141  27.9117703  25.6636548  23.4078288  28.2279038
  25.7280993  24.5481014  27.2346210  44.7416353  46.4525843   9.8948789
  44.6115637  46.8797731   9.0482247  44.6398926  45.5188990   9.7101915
  19.3652678  45.1228380  26.7072344  19.2648995  45.2358294  27.6524282
  20.0514913  44.4616938  26.6165853  44.5436430  51.2296391  20.0657797
  45.2555370  51.3210917  20.6990838  44.6305895  51.9936371  19.4957113
  47.6861811  63.6263752   2.4387668  48.6005449  63.3492613   2.3806535
  47.1933365  62.9122639   2.0345628  46.2193155  57.2295427   5.0173068
  45.2766180  57.3870420   4.9648598  46.4263630  57.3228168   5.9471798
  36.7694497  69.2568588  16.4155996  35.9905910  68.9575386  15.9465384
  36.7785239  68.7383699  17.2201610  53.5444975  68.7789726   0.4827240
  52.9905081  68.9422274  -0.2806089  53.5774469  67.8250885   0.5551428
  23.5967994  54.4134998  23.7772465  24.0223193  55.0505924  24.3510747
  24.2778754  53.7675619  23.5898185  41.8164015  63.9854527   4.0592322
  40.9372663  63.8822412   4.4235122  42.2397280  63.1406832   4.2121625
  60.7092047  11.8617713   0.9025888  61.5207005  11.5591419   0.4949996
  60.0270367  11.6469455   0.2664070  21.9232893  34.8816872  63.7780952
  21.0189056  35.1541495  63.9333010  22.2682166  34.6885729  64.6498537
  53.1014442  75.1436710  65.4193211  52.3278570  75.2043676  64.8588705
  53.1184483  75.9742117  65.8948660  44.4316387  56.7290068  29.7576618
  45.1176357  56.5055513  30.3867126  44.5510435  56.1053133  29.0414381
  36.7444730  54.5764017   5.3724349  35.9933710  55.1529455   5.2321649
  37.3654366  55.1087141   5.8697087  21.0347390  61.8073988   3.2024392
  21.1474633  62.4083900   3.9388737  20.0894165  61.6661024   3.1511357
  52.7210140  66.7267323  33.6854410  51.9168663  67.2399998  33.6071229
  53.3784389  67.2380781  33.2136941  25.1577091  17.5335431  25.6913185
  25.6699133  18.3265352  25.5330753  25.8088946  16.8337440  25.7410192
  42.1462154  53.4261656  24.3366098  41.3169050  53.3239365  24.8035359
  42.5786257  52.5770760  24.4277263  37.0647550  74.3758774   7.1708798
  36.8079662  73.5248709   7.5259572  36.3496923  74.6149969   6.5811884
  33.0173039  60.3420448  35.3308916  32.4054575  61.0277271  35.0630951
  32.5518131  59.5240974  35.1562095  14.1562259  60.8880711  10.8504498
  13.2380247  60.6722975  11.0134816  14.1785443  61.8449020  10.8362865
  55.8601284  63.3051348  22.9905248  56.5572977  62.6606083  23.1120682
  55.5368423  63.4778929  23.8747621  35.7243896  50.2672863  15.0686991
  35.7078362  49.6403503  15.7918239  36.5938854  50.1639795  14.6819985
  29.6766376  66.5740776  16.9743681  29.1467357  65.7799721  17.0438802
  29.1675043  67.2426414  17.4326658  24.5833611  33.4790707  12.1625400
  24.0594721  32.8654766  12.6775885  24.2324495  34.3408394  12.3871362
  33.3619618  66.2934303  13.3748662  32.5827932  66.7865133  13.1179619
  33.1924677  65.4019499  13.0702889  29.1427660  52.3969793  13.4054458
  29.8968101  52.1912622  12.8528798  28.5346317  52.8504133  12.8216636
   9.4614238  45.7641411  64.3960571   9.3902737  45.4263878  65.2888584
  10.0731349  46.4971113  64.4653034  44.9771261  39.6351004   9.7444630
  44.7565556  39.1152430   8.9715928  45.7040024  40.1895189   9.4607311
  44.6726036  58.5831690  18.7056887  44.3701553  57.6782131  18.7818778
  44.0350342  59.0917778  19.2067456  25.6662774  51.8997622   9.9234766
  25.5864429  52.5860262  10.5859721  25.5054903  51.0859442  10.4010582
  14.5002222   4.6455112  57.5255537  13.6340415   4.9357474  57.2396803
  15.0165391   4.6036682  56.7206335  29.9470019  42.0369148  18.7441111
  29.1510582  41.6055250  18.4333026  30.5284071  41.3177299  18.9910388
  38.0470657  37.1032000   3.5690400  38.2947421  36.6640162   4.3826777
  38.7644386  37.7134991   3.3983207  57.2398567  62.9655123   7.8593719
  57.6348305  63.2395363   7.0316404  57.6932240  62.1528721   8.0836546
  35.4220915  35.4067397  17.8778052  36.3332343  35.5692458  17.6335895
  35.1108003  36.2470317  18.2143164  41.6252995  51.8687868  12.9991877
  42.5187445  51.8837261  12.6560211  41.1912107  51.1721468  12.5067604
  28.0788994  63.3348846  12.3200488  28.0565238  64.0893269  12.9087317
  27.1754885  63.0191088  12.3009503   2.1853273  52.9643393  22.0202804
   1.4290318  52.6680326  21.5138698   2.8009611  52.2323895  21.9818544
  34.2198086  71.6985750   5.6583232  33.7995291  71.4821815   6.4906514
  34.4962597  72.6094055   5.7592756  20.2462673  40.9822464  12.6579297
  21.1252356  40.6035709  12.6738167  20.3921318  41.9276619  12.6916766
  18.0800307  28.4615803  64.1194916  18.5133648  29.3138957  64.1643524
  17.3035550  28.6156964  63.5813808  56.7588425  71.5125465  11.5570891
  56.3211823  70.9559822  10.9129441  56.1643934  71.5237141  12.3072469
  81.2238407   9.6264684  66.4119911  81.4644241  10.5516148  66.3624668
  80.4274654   9.5575720  65.8854198  36.1801481   7.4895400  50.9345627
  35.8090210   6.9787514  51.6540003  36.8952751   7.9835480  51.3355350
  41.4744425  32.7063799  22.2180462  41.5491390  32.8174281  23.1658435
  42.3709106  32.7967811  21.8949175  54.9400663  50.6918383  20.5068111
  54.5333242  50.8289623  19.6512485  54.4951057  49.9228668  20.8630729
  38.8019943  59.3010759  17.0459664  38.3717895  60.0236559  17.5031722
  38.1642032  58.5877800  17.0717061   7.2545713  15.9312403  66.2117958
   6.5709573  15.3786242  65.8329582   7.5558585  15.4465783  66.9802761
  57.0103455  14.0671134  37.3566794  56.9440889  13.9448380  38.3037210
  56.7551851  14.9786472  37.2144365  34.2341733  58.0508757  16.2850094
  33.3855009  57.6287413  16.4183855  34.3702531  58.0211782  15.3379965
  19.5999122  75.2509356  39.7266245  20.5231977  75.0145769  39.8155689
  19.4526339  75.2899885  38.7816310  78.4342909  19.5184612  62.5308609
  78.7327671  19.8750174  61.6941929  78.9938641  18.7562501  62.6796770
  44.9511290  55.3007507  27.6024604  45.7182264  54.8366690  27.2671700
  44.4623756  55.5529022  26.8190241  58.5350609  65.6686735  28.6703110
  58.5966158  65.8132172  29.6145296  58.1660128  66.4824104  28.3269954
  36.5940619  48.8593245  22.5643659  37.3303175  48.7142992  21.9701219
  35.8458924  48.4597683  22.1207118  52.4725580  75.0058889   3.1795439
  51.8408203  74.3134642   2.9854181  51.9573641  75.6849146   3.6151224
  37.0965791  41.9822025  13.6590743  36.7042255  41.1240101  13.8196933
  36.3550329  42.5482702  13.4448099  39.0223193  31.8205547  14.4759130
  38.6179590  31.5339899  13.6570084  39.4698215  32.6358795  14.2495942
  78.4750032  21.0437131   1.6804641  77.5414658  21.2313199   1.7781354
  78.5038996  20.2077985   1.2150139  45.6404400  50.4507875  30.3709698
  45.0957823  51.2333965  30.2867150  45.1306343  49.8630714  30.9285712
  14.3712449   3.7718239  48.6368465  13.5698783   3.3110356  48.8852739
  14.4575393   4.4695231  49.2864609  29.1102338  57.2348404   7.3246115
  29.6367455  57.6354313   6.6328418  28.7522221  56.4423370   6.9246161
  49.6039248  62.1788454  11.0233939  50.3249311  61.9836426  10.4248273
  49.5518017  63.1345844  11.0319388  36.6927004  67.5119972  22.8499532
  36.8411946  68.1931686  23.5058403  36.6716290  67.9824352  22.0166039
  25.6018972  40.8608818  13.8346171  26.0251260  40.0715399  13.4969068
  24.7580814  40.8917761  13.3837831  49.0150642  49.5806980  21.1034536
  48.1671810  49.6051693  21.5469933  49.4775009  50.3534126  21.4279413
  44.4915056  72.3416948  32.8834963  44.5915937  73.2290888  33.2280946
  43.7277460  72.3926640  32.3087740  33.3779025  46.7447472  32.4499679
  32.5614977  46.9612646  32.9003429  33.9888692  46.5259933  33.1536007
  74.0980482  22.6338100  63.4742975  74.6326971  21.8488288  63.3551884
  74.2495060  23.1492352  62.6820660  26.3965869  39.5516944  10.4869568
  27.1257567  39.8368740   9.9363095  26.8145180  39.1578507  11.2527597
  12.6472151  31.0607982  65.6922674  11.9649792  31.6410089  66.0301161
  12.3277438  30.7914710  64.8310852  29.4083714  34.5098138   3.7287086
  29.1838360  35.2093124   4.3423185  28.6252475  33.9604545   3.6947718
  39.8613143  53.8682508  20.0120211  39.4583654  53.6137486  19.1819048
  39.7203231  54.8134232  20.0668597  19.9732161  58.9374399  26.0564828
  19.2953527  59.0155745  26.7277718  20.2410412  58.0191708  26.0922837
  25.1408863  65.3290749  13.7509787  24.9548054  65.7040262  12.8901553
  24.7497582  64.4559288  13.7215352  25.7202816  53.6351061   5.5653536
  25.8181334  54.5844936   5.4923922  26.2623811  53.2834768   4.8591542
  49.5133209  54.5220709   1.2350921  49.2058611  54.4531870   0.3312377
  50.3585243  54.0727758   1.2354697  49.0451431  53.6533451  14.3203115
  49.3733692  54.5520687  14.2921019  49.1982698  53.3706236  15.2218938
  32.4820900  62.4400997  26.3775849  31.5992284  62.2202158  26.0801935
  33.0406427  62.2641230  25.6204319  51.5181208  74.6549082  22.3386574
  52.3032475  74.1078234  22.3161936  50.8357525  74.0804291  22.6859021
  30.2531815  54.6470308  29.2604280  30.3543854  55.5609751  28.9945388
  29.3604040  54.4195080  29.0007925  42.9092789  70.7811165  16.2422168
  43.4777164  70.0403929  16.0314178  43.4483767  71.5532064  16.0705018
  57.7868509  53.8388538  15.1285088  58.0529690  52.9219484  15.1970518
  58.6029291  54.3320179  15.2124107  48.0757952  47.6579714  14.9070168
  47.3355436  47.1240902  15.1955116  48.6861420  47.6394463  15.6441486
  38.2210112  72.3197746  10.1223469  38.0582142  71.6141176   9.4964284
  38.9068675  71.9777727  10.6958139  31.9835639  46.9355202   6.3145995
  31.4810109  46.8440628   7.1241111  32.8779197  47.1119404   6.6065472
  47.8306103  63.6836910  13.3365512  47.9682159  64.1390657  14.1671705
  47.9562807  64.3587255  12.6696420  40.6692505  61.2681532  14.9163580
  40.0058937  60.6633377  14.5841181  41.4603758  61.0502195  14.4235551
  41.1692715  51.4154387  18.4679854  41.8081570  50.9954119  17.8921080
  41.4644909  52.3237848  18.5310900  35.2358007  52.7299166  14.4867635
  35.5663276  52.6858473  13.5895228  35.1439905  51.8151999  14.7533917
  39.7430849  71.0624647   2.2998191  39.1793585  71.7649031   2.6238990
  39.1581917  70.5018854   1.7900330  41.3697386  21.5751958  64.7474384
  41.2571049  22.0270228  65.5837345  41.9493532  22.1459913  64.2429829
  17.2787619  46.4377451  35.5266309  16.8637872  46.1176920  34.7256374
  17.4440575  47.3651171  35.3566647  36.4023566  55.2301168  37.6422191
  35.4904222  54.9609089  37.5320601  36.6349339  54.9338055  38.5221839
   8.2646722  72.0607090  11.6189575   8.8229245  71.5060186  11.0740650
   8.7499428  72.1575069  12.4383318  23.3779931  63.8545418  30.9612703
  22.6183414  63.3602667  31.2692499  23.5027194  63.5637808  30.0578690
  14.6686280  30.6541300  60.9510565  13.8132966  31.0778403  60.8795881
  14.5388389  29.7864747  60.5682278  37.7837157  33.5684872  23.0428243
  37.0651960  33.2007432  23.5573411  37.4433899  33.6062527  22.1489668
  65.1603508  43.3196306  23.4769344  64.7009230  43.4644556  22.6497817
  65.4640532  44.1891289  23.7376523  43.2086420  66.2947035  13.9606977
  43.3351469  67.0693398  14.5085752  43.9583349  66.2972307  13.3655667
  76.1592197  20.6855178  65.9327555  75.6422901  19.8926473  66.0755014
  76.5709877  20.8586264  66.7793417  75.8177233   7.5177795  18.8024366
  75.7349539   6.9526899  19.5705867  74.9339962   7.5556552  18.4366167
  62.3352623   0.3222572  19.3256867  63.1442881   0.1779789  18.8348758
  62.0575619   1.2035949  19.0759706  36.2377954  70.8357859  39.0330720
  35.5829430  70.3825998  39.5641327  37.0494699  70.7559490  39.5341134
  74.5833778  24.9302888   8.8889903  73.9963341  24.8835444   9.6435934
  74.9095106  25.8301997   8.8946342   9.6729112  71.0661316  64.7902012
   9.1781205  71.0686016  65.6095934  10.5597436  71.3206100  65.0451517
  44.0524530  68.2509851   5.8593589  43.4706306  68.9237547   5.5056769
  44.0463829  67.5579023   5.1991850  51.0675430  68.5707855   3.1998456
  51.6072750  67.7993822   3.0270413  51.5880728  69.0960407   3.8076186
  57.9301119  68.0343103  27.9663897  57.1617174  68.5564613  27.7358103
  58.6728668  68.6145258  27.7993774  39.5175004  72.4712610  27.8600311
  39.2516780  72.6761818  26.9636059  38.7801051  72.7564144  28.3996296
  46.7280483  72.6344204  13.0743670  46.1023712  72.9694843  12.4321127
  47.4870491  73.2119656  12.9932284  79.5283893  56.2695048   0.5417242
  79.0750363  56.7425726   1.2395181  78.8539842  56.1138806  -0.1194773
   7.3225331   0.6206787   9.5260143   7.5225651  -0.1504857   8.9954257
   7.6318228   1.3591540   9.0013945  40.5775070  72.0278263  43.8192129
  39.7717786  72.0355368  43.3025169  40.4686642  71.2920046  44.4216681
  52.0554638  62.9050827   3.6224696  52.2056198  63.2360029   4.5080069
  51.8914700  61.9695139   3.7410000  27.7921343  65.5739832  14.2293143
  26.8592811  65.6667423  14.0358889  27.8355861  65.5313492  15.1845765
  45.1046753  68.6058378  29.7688603  45.1705265  69.5505619  29.9080920
  45.7734156  68.4134150  29.1116023  27.7254915  69.1030169   8.9955276
  27.0868635  68.6432028   9.5404691  27.2024226  69.5086145   8.3040631
  54.0391064  71.7384005  30.3752828  53.5967350  71.7117357  31.2237120
  54.4694185  72.5932074  30.3562927   0.3273731  14.5345151  32.3567557
   0.0136029  14.2315078  33.2087922  -0.1950523  15.3152299  32.1729374
  30.7303333  73.3552933  33.5897398  31.0805845  72.7336645  34.2278099
  30.6810999  72.8582287  32.7732015  45.0828695  70.8341885  19.1884875
  45.1497793  70.4757214  18.3034694  45.6330395  70.2602911  19.7215784
  42.8964567  70.4853010   4.5855471  42.8064632  71.0506868   5.3526670
  43.4150982  71.0006142   3.9677322  75.5563498  17.9650927   2.8405797
  75.6471729  17.0867062   3.2099313  76.1642218  18.5024965   3.3484352
  31.0017848  54.0325356   6.0022658  31.7348719  54.3763924   5.4917985
  30.8752370  53.1435204   5.6707954  25.4666185  60.1856709  38.6867046
  26.3580179  60.2375126  39.0315962  24.9062037  60.2619696  39.4589376
  38.1776118  61.5662861  11.9806170  38.1383514  62.5094938  12.1389019
  39.0930057  61.3349199  12.1379590   4.7164094   3.0229026  17.4808431
   3.9521658   2.6017907  17.8743255   4.4314581   3.9194870  17.3042905
  71.6480160   2.0976144  14.0050721  71.8080425   1.2248500  14.3641067
  72.4115610   2.2742076  13.4554827  67.6225138  15.3618360  23.1117392
  68.4093523  14.9226296  23.4345698  67.0018578  14.6517158  22.9482079
  62.5809956   6.3334286  17.8703749  63.1373549   5.6203914  17.5568867
  62.7349186   6.3598609  18.8147485  58.0480671  74.3533325  10.3172278
  58.8691378  74.2382145   9.8388797  58.2738447  74.1677237  11.2287140
  76.1762285  15.7335293  63.2689381  76.0779381  16.6636002  63.0651236
  75.2792215  15.4032540  63.3192205  28.2034373  49.0285873  10.7283449
  28.5175800  48.8220787  11.6086292  28.5195661  48.3062553  10.1856363
  43.9140368  51.1292696  24.8294187  44.4931936  51.8168306  24.5006824
  44.0724182  51.1137009  25.7732964  47.3836279  74.2238617  44.0240717
  46.5067816  74.5974541  43.9357662  47.8721666  74.5815897  43.2827282
  76.9749165   0.7436977  24.7605681  77.5263786  -0.0046752  24.9887300
  76.0815191   0.4016147  24.7930408  33.6130667  67.1179390  21.8955612
  32.9670382  66.8547153  22.5509930  33.4402180  68.0479097  21.7488837
  58.7673044  66.4839411  31.4064884  58.0907679  67.1599150  31.3667130
  59.5751429  66.9393444  31.1693501  64.3632746   6.5949351  55.4551411
  64.2277336   7.5309318  55.6026888  64.8500490   6.2992144  56.2244463
  19.7880065  61.3039207  12.9369998  20.3628707  60.8701134  12.3064625
  18.9602172  61.4150858  12.4694121  52.8063869   7.5803447   5.6535333
  53.0273676   8.1865442   6.3605851  52.9132509   6.7115229   6.0407811
  49.7602034  57.3942041  28.3486462  50.0137138  57.8887081  27.5692677
  49.4682550  56.5475798  28.0106735   5.6452262  65.9840727  17.9520440
   6.1425394  65.1662016  17.9500556   6.2722373  66.6463518  17.6614046
  36.6382027  59.9802160  13.6646199  36.8253136  60.8017397  13.2103980
  35.9189939  60.1936483  14.2591083  58.3626461  77.2275496  21.9397640
  58.7486792  76.5211678  22.4576759  57.4360275  76.9969273  21.8732166
  53.0895948  68.4545135  14.1123223  52.9574442  68.9578438  13.3089375
  52.3667383  68.7180948  14.6817350  72.8343773  11.7339969  24.0456128
  72.4455261  10.8596587  24.0692687  72.0982075  12.3187435  23.8657308
  50.7721043  75.1472569  63.9903784  50.7570744  74.8470402  63.0815983
  49.9174070  75.5578995  64.1211319  65.6063318  17.3536289  13.5023367
  66.2346649  17.9226458  13.0577564  65.9694481  17.2355473  14.3800819
  39.7602844  68.2653856   6.9229019  39.4050217  68.7597942   6.1842656
  40.1747608  67.5011635   6.5224004  38.5633111  48.2779074   6.2028348
  37.7966571  47.8589678   5.8117336  38.2693672  48.5520697   7.0715487
  57.1685362  60.9640408  20.2609873  56.2964773  60.5844831  20.3690577
  57.6133537  60.7817411  21.0887170  27.7181673  47.7886820   2.2322966
  27.4348307  48.0299902   1.3504100  27.8604555  46.8431616   2.1878311
  76.1513329  26.3826251  36.5565920  76.6196442  26.3265276  37.3895192
  76.5103674  27.1617293  36.1319494   9.4739491  18.2901585   6.1442530
   8.5362017  18.2193637   6.3227177   9.6574193  17.5718808   5.5387384
  44.0145874  71.1177111  25.3329468  44.2432499  71.1231756  24.4034767
  43.5921907  70.2698708  25.4707050  44.9317884  59.4529343  23.3068800
  44.6711874  58.9627838  24.0866685  44.2362833  60.0995493  23.1868863
  73.8261747   9.0467769  52.3204422  73.5140371   8.8906837  51.4291286
  74.7586966   9.2367977  52.2178078  56.0638618  57.7941275   8.6100680
  55.7180786  56.9622660   8.2865363  56.3416195  58.2608271   7.8218585
  70.7356882  18.3142519  40.2131701  70.5998611  18.2958567  41.1605072
  69.9073601  18.0050826  39.8464012  43.3638763  68.5151529  25.8321309
  43.8238955  67.6790905  25.7571673  42.7487469  68.3861828  26.5540814
  35.1190400  52.4795914   7.4132448  34.4791269  51.7880964   7.2441882
  34.7775483  53.2415676   6.9452620  63.1454468   2.8513700  12.9113555
  63.8425255   2.7536997  12.2626853  62.8953695   1.9539440  13.1311691
  37.1069145  57.4447012  24.7139907  36.1647892  57.4404240  24.8831415
  37.1922350  57.0999193  23.8251281  43.0031061  75.6207991  34.0848255
  42.1546745  76.0620260  34.0434217  43.1270075  75.2571726  33.2080960
  70.3528929   1.8373787  25.3539658  70.0127459   2.4718703  25.9847999
  69.5829439   1.5528277  24.8615837  40.5022335  59.9740362  21.7170262
  39.5898461  59.6906090  21.6582918  40.4505444  60.9171581  21.8722129
   8.5899794  16.7157340  63.2358408   9.3268842  17.1677625  63.6467838
   8.5605663  15.8626771  63.6690378  66.9362116   0.2960947  14.6658111
  67.6063490   0.9769301  14.6056926  67.4298239  -0.5171265  14.7718823
  33.1591034  75.4088497  20.0978923  33.8210297  76.0629749  19.8738241
  32.6204944  75.8323574  20.7663012  34.8695540  71.0574484  25.7739902
  34.7246575  72.0006371  25.8490300  34.1426611  70.6642818  26.2569809
  44.1132164  63.5760498  33.7350106  43.4030724  63.0268383  34.0671134
  43.6960125  64.4152880  33.5404515   1.8262379  25.8025455  21.3637400
   2.5270444  26.4089370  21.6033077   2.2290036  25.2096272  20.7293415
  78.4345961   3.4136209   9.7736031  78.8880682   2.5916961   9.5864314
  79.1274500   4.0103802  10.0565565  74.3023443   3.5146093   3.6760661
  74.5408821   2.5947812   3.5609701  73.9118052   3.5533315   4.5491129
  70.3761625   9.9182749  19.6728206  70.0295830  10.5745161  19.0682876
  70.9934759  10.4011655  20.2223420  13.5149336  22.6546955  57.1427059
  13.6507690  23.0090308  56.2639427  13.3253729  21.7273140  57.0003557
  33.4391212  53.6056423  34.3772149  33.0216122  52.7511549  34.2687249
  34.2364216  53.5512686  33.8503456  38.4747362  73.5552549  25.4364538
  39.3247056  73.5726261  24.9965882  37.8736210  73.1993771  24.7820520
  55.7394648  54.7508860  21.3405347  56.4295626  54.6905041  22.0011020
  56.1151886  54.3376303  20.5631757  79.3896294   9.7400641  19.8982942
  78.7587452   9.6042925  19.1913426  79.6606016  10.6533933  19.8053670
  56.6995907  49.2570591  64.0244007  55.7532501  49.3965101  63.9893150
  56.9140053  48.8561630  63.1820583  38.7691784  58.6236477   5.7589412
  38.3569694  58.9712477   4.9680620  39.3004012  59.3477345   6.0901928
  64.7976351   7.9272741  25.6011939  63.9546347   8.2619542  25.2952957
  64.9977064   8.4536636  26.3752222  23.8537884  52.6729441   1.4283067
  23.7481785  52.3202610   0.5447385  24.0388322  51.9068050   1.9714701
  38.6153054  63.2039022  19.3980598  39.1727209  63.8627148  19.8121631
  39.0315437  63.0350351  18.5528016  69.3393087   8.3290076  43.7199259
  69.5067072   7.3953795  43.8485575  68.4260893   8.3717477  43.4362984
  34.8835206   4.6525797  40.1487780  35.6107283   4.3849617  40.7107258
  34.3151927   3.8833421  40.1099300  17.2814012  54.5544434  34.3009925
  18.1363368  54.8436260  33.9821029  17.0466244  55.1955605  34.9718761
  77.5776196   2.1541496  31.8326092  78.2209158   1.6629426  31.3216138
  76.9629908   2.4930276  31.1817431  45.8860683  74.2014313  25.2533269
  45.5744171  73.4814787  24.7048998  45.9040594  73.8377476  26.1385632
  66.9772863  14.5128870  38.7774992  66.2547970  14.1781664  39.3087244
  66.5527105  15.0397551  38.1004643  45.5725050  73.4152412  20.3091168
  44.9381399  72.8283024  19.8976421  45.3435802  74.2842865  19.9795914
  49.9015236  59.9590206  21.4484286  50.1817417  59.0711403  21.2262154
  49.2665768  60.1868010  20.7693219  42.2359514  56.2375212  21.6454029
  41.5446568  56.6033602  22.1972203  41.9109678  56.3450718  20.7515073
  48.6367273  75.6429863  31.2369776  48.3560562  76.5365601  31.4344049
  48.6629534  75.6059027  30.2808547  12.8345823  22.6314688   1.1217953
  13.6442184  22.1781397   1.3567759  12.2056818  21.9288206   0.9574778
  39.5314074  61.7688608  28.8204193  39.2771268  60.8558750  28.6861229
  40.4783010  61.7362118  28.9566445  19.0552926  54.4864416   3.8209274
  19.8908210  54.3296671   3.3809891  18.5240042  54.9446297   3.1697533
  43.8718796   3.7587744  20.4015613  44.7924280   3.6144027  20.1825118
  43.3963680   3.1192359  19.8713636  30.7984877  60.8989811  31.7679667
  30.0969124  61.3540745  32.2337055  30.6829858  59.9779701  32.0016885
  21.1686659  31.6279101  61.0024738  21.9969201  31.1652827  60.8751917
  20.6775236  31.4657640  60.1970434  54.2028713  67.0099258  16.1738932
  53.7712097  67.4941397  15.4700184  53.6103201  67.0941162  16.9209075
  42.4860382  74.6518755  50.8546352  41.7482996  74.7948027  50.2617168
  42.1338463  74.0885353  51.5437174  22.9952526  63.8057566  18.8299775
  22.1472120  64.1617632  18.5648036  23.0930424  64.0750170  19.7433054
  42.1922350  67.3092651  44.7336149  42.6642227  67.3022699  43.9009047
  42.2861052  66.4179087  45.0696278  41.6202211  66.0972929  29.5048165
  41.9727802  66.9706011  29.3337274  42.3909903  65.5586576  29.6837401
  32.8811741  49.1518736  13.3554709  33.8037086  49.4052839  13.3247387
  32.5332808  49.6066856  14.1225088  62.2287512  73.3539200  43.3020163
  62.0070982  72.6865530  43.9514112  61.6519976  73.1680012  42.5610542
  44.4855452  68.7205553  15.4427326  44.3057108  68.5542822  16.3680673
  45.3625107  69.1040850  15.4343259  64.8577023  11.0006738  23.3582544
  64.1483116  10.4282475  23.6503601  65.5079269  10.4052174  22.9856038
  25.6253934  60.1834774   7.3474717  26.5201235  60.3342438   7.0425797
  25.6774926  60.2772045   8.2986462  43.7437773  52.4495840   2.5171316
  43.4968615  53.3688307   2.4158834  43.0650949  52.0801020   3.0820277
  72.2121906   7.2362858   4.3607366  72.3498011   8.0982375   4.7535902
  71.9575214   6.6766173   5.0943220  30.7519197  75.7360697  31.9903064
  30.2164769  76.2391138  32.6038861  30.7447505  74.8453283  32.3406768
  72.8174925   1.7661406  19.7510827  71.9814444   1.5818675  19.3229520
  72.6427555   2.5318593  20.2982306  41.9554615  59.1887856   9.4851178
  42.6741886  59.3904734  10.0842679  41.2551880  58.8647842  10.0515747
  66.7427206  64.3210697  21.2539530  66.7298841  65.0694418  20.6572866
  67.1228504  64.6655512  22.0620775  60.0318050  74.3799067  12.0329845
  59.6312666  75.1662016  12.4038422  60.9692335  74.4911766  12.1913326
  28.9027143  72.5539970  44.0531111  29.2428923  72.1259403  43.2674408
  29.5142984  72.3042250  44.7457981  49.5651197  65.2088308  36.3226700
  49.6508694  65.8611536  35.6274319  49.8759937  65.6556702  37.1100235
   1.3304821  29.9434972  21.9509220   2.1780665  30.3628111  22.0992780
   1.1253899  29.5169449  22.7829218  39.2062163  68.7634802  36.5243363
  39.4687271  69.2154408  37.3262405  38.8202715  69.4486523  35.9786129
  34.0816784  53.6640406  28.2736659  33.5053253  53.1923771  28.8749838
  34.9242783  53.2161236  28.3486819  55.6360388  44.2124796  15.4272771
  55.6321955  44.3697357  16.3714635  55.0310373  43.4810734  15.3038156
  55.1534510  64.0622187  25.7739353  54.4277096  63.4410048  25.8341289
  55.8196592  63.7101650  26.3642335  58.0363894   1.8115181  17.9598296
  57.7863932   2.6351425  17.5410497  58.6829281   1.4280811  17.3672080
  52.8067827  73.2920170   0.4224204  53.2340908  72.6923561  -0.1891715
  52.8574276  72.8474236   1.2685888  51.5448025  -0.1295918  16.1735499
  50.6478742  -0.0213879  16.4898503  52.0500258   0.5232889  16.6580355
  42.2925520  72.8902102   1.9978449  41.8327761  72.2964048   1.4043537
  43.1921577  72.5635910   2.0140091  33.1795764  16.2653899  64.4437504
  32.2466493  16.2733030  64.2297077  33.5260081  15.5050242  63.9767838
  29.7975516  65.3050375   7.7489430  29.6713853  66.0160160   7.1205926
  30.6702590  64.9641848   7.5528967  53.4550810  75.2686644  42.2967577
  52.9094362  75.9083080  42.7543211  52.9464769  75.0309801  41.5214777
  36.2841940  69.9012327   5.1629955  36.5834975  70.2379084   4.3184263
  35.3702641  70.1796818   5.2215677  27.4140048  61.1451530  32.3401833
  27.3567557  61.4895821  31.4489365  27.7003670  61.8910646  32.8672910
  56.6165331  56.3560793   0.0524606  56.4570501  56.5931747   0.9660139
  56.8801168  55.4365037   0.0861778   4.5527372  16.5195060  17.2575533
   4.7447014  16.7617917  18.1634665   3.9824975  15.7541251  17.3300171
  25.8080530  68.1688786  32.3219681  25.6756401  68.8616610  31.6748595
  26.1801744  67.4422503  31.8221951  64.6165848  49.4163656  20.0890923
  65.2435780  48.7313461  19.8570120  64.4248438  49.8561573  19.2608094
  45.3722715  61.3077021  16.7698276  45.0158215  61.6642094  17.5835085
  46.0197401  61.9541264  16.4884818  55.2714634  71.5900040  16.4548254
  54.7197866  71.8483257  17.1931696  55.7243681  70.8031225  16.7580247
  22.5363398  60.3272486  48.8171530  21.5860701  60.2132130  48.8318205
  22.8854251  59.4447136  48.9416885  60.4629087  24.1330838  28.2618523
  60.1021242  24.9161410  27.8460526  59.7011280  23.5781598  28.4291434
  65.3560638  23.7284374   5.9671509  66.0659122  23.3456492   5.4515749
  65.3129578  23.1863952   6.7549103  38.7507558  50.3192043  20.0362968
  39.1571879  49.5156908  20.3609610  39.4334507  50.7380724  19.5121717
  55.4834270  68.6297655   2.8341451  55.0367975  69.0105534   2.0780033
  54.9405813  67.8809977   3.0809152  52.2291231  70.6277752  17.8056002
  52.9650450  70.8336926  18.3820105  52.3164988  69.6906900  17.6310647
  48.3245659  69.6629810  30.2319813  48.2700205  70.4189730  30.8165598
  48.2784891  68.9053965  30.8152246  67.2714138  23.8228488  24.9677396
  67.7371597  22.9924512  25.0664973  66.3627243  23.6151624  25.1854086
   6.8186921   9.9919051  64.2109728   7.6023519   9.6534485  64.6440506
   6.0931492   9.6852958  64.7548580  32.3049569  26.7547512  64.7527218
  31.5717554  26.6998935  64.1398287  31.9308758  26.5023947  65.5968857
  33.7207055  63.8476467  21.3755655  34.1700006  63.6708832  20.5490565
  33.8943529  64.7727585  21.5494919  29.4429946  48.3727455  13.4127390
  28.8062716  48.8744593  13.9217579  30.2934599  48.6470366  13.7558222
  36.7613721  67.4124861   6.3365054  36.6919327  68.2691002   5.9150463
  36.1840653  67.4725437   7.0976520   8.2028872   0.7168715  13.4883165
   7.5072658   0.3386272  14.0261579   8.7733781  -0.0228825  13.2796621
  35.9755135  64.5957232   5.9671366  35.9384871  65.5460024   5.8583963
  36.2178755  64.4688749   6.8844163  44.3325377  52.6885796   6.4563477
  44.0076017  53.5440731   6.1756814  43.8791704  52.5193357   7.2822094
  35.4447985  67.5380087  39.5656753  34.9870872  68.3559561  39.7598267
  34.7501731  66.9278622  39.3177819  13.5769796  15.6830728  34.9795890
  13.2588863  15.0715411  35.6437254  14.4112885  15.9998810  35.3257012
  20.3605556  33.0382109  57.2253513  19.5643723  32.9990053  56.6954565
  20.0919747  33.4842610  58.0285549  49.0719032  74.4555855  13.5066211
  49.8224735  74.5905066  14.0851319  49.3978024  74.6802616  12.6351035
  73.8769913  73.2332802  27.5924230  74.4788933  73.6615086  28.2011628
  73.6168146  72.4279356  28.0395937  52.7797270  53.3111238  20.5043101
  53.2853794  52.5085068  20.3764415  53.3107710  53.9960575  20.0979877
  67.5053787  19.4676590  23.8365054  67.4725389  20.1811886  24.4737101
  66.6147375  19.4149864  23.4897876   8.3869416   8.2083100  13.7783909
   9.1961813   8.2019961  14.2895889   8.6599892   8.4763205  12.9009819
  80.9623241  20.8291125  21.1259627  80.9762287  21.3785315  20.3422689
  80.9416294  19.9330664  20.7899475  54.0312147   7.0902675  41.6748571
  53.2004595   7.2270060  42.1302462  54.5057726   6.4665627  42.2244215
  51.0842943  49.7546577  18.8931000  51.0909224  49.3656206  19.7676504
  50.4817009  50.4949045  18.9648151  57.5141239  61.1637592  37.2684312
  57.0255518  60.3866291  36.9971418  57.8982925  60.9229565  38.1114388
  73.8961697   4.0244842  43.7477350  73.0422449   4.4569522  43.7513399
  74.0042543   3.7003291  44.6418715  72.4160957   8.8651401   8.3042955
  72.1071386   9.5758301   8.8661653  73.3141088   8.7040186   8.5938531
   5.1451683  20.4439187  28.3227253   5.9451514  19.9675608  28.5448527
   4.9456969  20.1724219  27.4267721   0.8400798  28.7330484  63.4895802
   0.6135592  28.2134604  64.2609072   1.2614702  28.1106806  62.8968573
  76.0232401   6.2879145  21.2079906  76.2563133   5.3942233  20.9565496
  76.8584442   6.7001790  21.4286757  72.3949528   3.0231163  27.0552945
  72.8232384   2.6267546  27.8140450  72.9808187   3.7333515  26.7934561
  81.3058567   4.4689834  34.7601748  81.1863804   5.3124428  34.3236732
  82.1057129   4.5767981  35.2748036  53.3265734  65.1832008  24.0928459
  54.1137505  64.8342228  24.5109391  52.6335573  64.5698643  24.3373394
  77.2135735   1.6262746  18.2855666  76.7819929   1.6410457  19.1398203
  76.6380548   2.1385184  17.7175725  77.5568390   3.9907461  41.2710619
  78.4488344   3.7752596  40.9987783  77.6497555   4.3012390  42.1717262
  48.2892323  74.3897438  33.4358978  47.4279594  74.5961571  33.7989902
  48.3186197  74.8636723  32.6047802  81.4774704  14.5605874  23.2499409
  81.2680626  14.5528483  24.1839218  82.2849941  15.0709903  23.1897593
  26.1972404  30.9668970  19.7630930  26.8991518  30.7747126  20.3848791
  26.3295984  30.3406334  19.0514004  32.6107812  30.8541584   3.2246253
  31.9763374  30.1924610   3.5000652  32.2495556  31.2088156   2.4122432
   4.4331002  74.9256611  38.1806278   4.6171448  75.8640528  38.2229114
   3.8171721  74.8349142  37.4535608  38.3636713  16.0225689  17.4959564
  38.7295938  15.1390219  17.4549973  39.1261339  16.5934205  17.5908935
  65.1432276  67.8855848  61.5600538  65.6105614  68.5408354  62.0782042
  64.5008469  68.3892012  61.0601044  17.5039220  29.4786215  15.1722014
  17.7274835  29.0229797  15.9837699  17.9184818  30.3371620  15.2575243
  81.1094666   7.4295914  15.4106140  81.2724781   6.8726736  16.1718643
  81.5556908   6.9859225  14.6893167  49.5533657  70.0104427  59.1657829
  50.1490164  70.4629993  58.5686016  49.2181396  69.2727184  58.6562586
  50.1708126  15.7168651  13.1825030  49.4439888  15.1190960  13.3575249
  50.4738569  15.4756331  12.3071730   6.4454472   8.8382745  27.1013522
   7.0613819   8.3917850  27.6823044   6.2373519   9.6550226  27.5550604
  58.2007170  56.4486933  65.2803373  57.3374462  56.5551710  64.8807716
  58.7744427  57.0164967  64.7658825  33.7580371  36.2765956  27.7538013
  33.6338806  36.1756611  28.6975336  34.5384455  36.8248010  27.6721716
  31.7088079  27.6585674  22.2059655  31.8349218  27.8807044  21.2834787
  32.3199940  26.9392323  22.3648286  22.8077388  21.4099598   6.8837941
  22.6767302  22.0814466   7.5532532  22.5310802  20.5956340   7.3039883
  30.7555223   5.3191268  42.0082045  30.4791880   4.4081897  42.1085262
  30.4627919   5.7481515  42.8122425  20.2161193  12.4218023  23.8308334
  20.3176188  11.8717146  24.6075797  19.3076777  12.2887540  23.5601640
  48.5708570  17.2194922  11.3969374  48.8339853  16.6915333  10.6431091
  49.2319536  17.0318413  12.0632482  11.2163424  30.2314734   1.2060839
  12.1655500  30.1646876   1.1022736  10.9155905  29.3237400   1.2485387
  24.4734836  25.1842523  19.9011028  24.0257668  24.5849133  19.3039632
  24.1614032  24.9336052  20.7705927  16.5117741  28.7495685  39.7198725
  16.5208530  27.9857850  39.1429973  15.6029510  29.0496826  39.7056365
  20.7767320   3.2002816   5.3377485  21.1356592   3.5491309   4.5218396
  20.7156897   3.9600694   5.9167379  28.0928230  40.7349443  16.9934380
  28.2393813  41.3604879  16.2838960  27.1996164  40.4201269  16.8545055
  74.0452480  57.8351974  65.1935005  74.4238806  57.1081686  64.6992350
  74.5307636  58.6049843  64.8969650  40.5894995  31.9955778  12.0742202
  40.8962393  31.1678290  11.7041206  41.3866472  32.4366283  12.3679209
  26.3623118  55.6472492   9.8142987  26.2886000  55.4297638   8.8850516
  25.5289507  56.0663271  10.0290394  15.1170003  23.0399013  25.9476399
  14.7235799  23.0002666  25.0759292  15.5856204  23.8744330  25.9611988
  15.4792225  32.4849796  38.5629392  16.2454844  31.9114327  38.5521317
  14.8877382  32.1067381  37.9123139  46.8209505  68.7079191  11.7906618
  46.5547943  69.4722271  11.2795556  47.5955439  68.9993238  12.2716165
  10.6825924  62.2774410  28.1169724   9.7827399  62.1482992  28.4166694
  10.7523787  63.2203722  27.9678488  27.5570774  37.3663831  15.2017772
  28.3952737  37.7700567  14.9765980  27.5646400  37.3159385  16.1576176
  22.3328328  30.6655788  11.1847496  23.2137728  30.6777740  11.5589523
  21.7960715  31.1390996  11.8202794  77.2243023   6.6949272  61.2043810
  77.8452826   6.0976797  60.7873535  77.6660061   7.5440764  61.1957455
  60.2849007  63.1403589   9.8089361  60.2139950  63.6049747   8.9750671
  60.7180691  62.3159504   9.5876962  25.0102234  30.5366397   8.1529230
  24.1613412  30.2734041   7.7974832  24.8177671  31.3076067   8.6865932
  54.7298717  19.2100918  16.4834034  55.0855160  20.0701976  16.2598705
  54.3752384  19.3194866  17.3657310  34.4534302  41.2332392  11.5765023
  34.1047430  40.9326553  10.7372785  33.9935994  40.7058096  12.2296500
  70.8933163  73.4231281  57.7659750  71.8333769  73.3799362  57.9410458
  70.6416607  74.3091917  58.0263519  20.9560442   3.7977129  66.4981842
  20.0266194   3.8826454  66.2856054  20.9781504   3.1895447  67.2370195
  14.5039654  48.1734276  14.9147666  13.8085699  48.0520725  14.2682922
  14.0475285  48.4555817  15.7074106  76.8699598  67.0469475  65.1837730
  77.0580673  67.3676157  66.0658264  76.7858791  67.8394985  64.6536541
  25.6249118   1.7262352  25.0264716  26.3337922   1.0981477  25.1651359
  24.9602437   1.4833893  25.6710434   5.2544701  69.0391922  61.7672920
   5.8919722  69.4590187  62.3448467   4.7492060  68.4665108  62.3443317
  39.7445035  42.4317741  14.7160769  38.8379526  42.1443129  14.8245275
  40.2230835  41.9829941  15.4130661  73.0395126  21.8617463  56.5142393
  73.4319592  20.9912395  56.4476347  72.2887325  21.7421412  57.0958376
  28.7225556  18.7096095   2.7052838  28.6861134  19.6351790   2.4639854
  29.4994926  18.3756101   2.2569008  52.4742174  31.6037202   0.6237496
  51.8920040  31.8949080   1.3255122  52.8662014  30.7966185   0.9571625
  70.7144022  54.4575739  40.1000357  69.8120642  54.2735291  40.3610802
  70.7956266  54.0693712  39.2288661  33.3863926  40.6846714  21.0025120
  33.7684488  41.2312746  21.6891623  33.9555407  40.8193159  20.2447677
  44.6364546  38.8161254   3.6069056  43.9092350  38.3617139   3.1815898
  44.3781471  39.7378039   3.6028826  31.6797972  43.3982801  13.3110929
  31.2502050  42.5443983  13.2604516  31.4433527  43.8342810  12.4924195
  30.2948713  25.8898163   9.7629660  30.6396651  25.1514673   9.2607820
  29.7464323  26.3674784   9.1406447  68.4632492  71.4804602  54.9131775
  69.0501451  72.2359753  54.9445009  69.0447760  70.7226992  54.9752855
  38.9992905  32.8025985  10.0957692  39.6331096  32.7308011  10.8094561
  38.1578422  32.5922060  10.5006528  33.1461358  41.4891768  30.7140279
  32.9721856  41.7058992  31.6300011  32.7878594  42.2273064  30.2210498
   9.3550360  72.2410870  54.3409300   9.8364681  72.3059273  55.1657057
   9.7323889  71.4783573  53.9026594  28.0904818  22.9795027  23.2364249
  27.4404049  23.6159730  22.9388690  28.1332302  22.3333907  22.5314808
   2.0989506  72.2774363  50.0116396   2.9792795  72.2466183  49.6370697
   2.2419654  72.3023987  50.9577656  10.5381703  13.8054025   2.6809692
  11.2868130  14.3061996   2.3569807  10.8302820  12.8942299   2.6551521
  29.1252208  30.5956602  25.2093363  28.3051038  30.2331972  25.5443907
  29.4131541  29.9658465  24.5485330  37.8908563  53.9098835   2.2861095
  38.6530685  53.7265110   1.7368905  37.1556664  53.5194111   1.8136063
  20.4080343  30.6019521  28.4661317  20.6874275  30.9393191  29.3172216
  19.8383486  31.2852716  28.1129098  16.2974906  24.0226412   4.7856656
  17.1742892  23.6609864   4.6565878  16.0251486  23.6909318   5.6412524
  11.8047082  44.8284054  20.3292561  12.5832474  45.2814341  20.6530976
  11.2303424  44.7639751  21.0922647  36.7239308  27.4283791   6.5430909
  37.2242713  27.2273850   7.3339725  37.3413587  27.8973794   5.9817952
  43.5364914  59.3451834  39.1640377  42.5858641  59.4219446  39.2455578
  43.6675024  58.8179302  38.3759570  30.0935721  34.2816114  13.6980438
  30.4700994  33.4028435  13.6508894  30.5834436  34.7148895  14.3969917
  58.4185505  17.4752045  18.0062699  57.7225304  16.9963145  17.5563204
  58.4088516  18.3444679  17.6056218  51.0381269  18.1920481  13.4218705
  50.7483292  18.5349751  14.2672408  50.7887840  17.2680724  13.4400141
  47.3097467  33.6128497  14.3047750  46.7857981  34.3939638  14.4824433
  48.0089140  33.9196372  13.7274718  21.2732983  44.9620628   7.0454824
  20.7817197  45.1222944   7.8510320  20.9595037  45.6305122   6.4364314
  56.6691446  50.0825405  66.7451286  57.0796824  49.3643284  67.2266483
  56.6637802  49.7880697  65.8343649  71.2567759  76.0611725  51.9338560
  70.8956385  76.4005852  52.7527666  71.2166548  76.8020678  51.3291264
  53.1414604  20.3642726  18.6051583  52.3883152  20.9501839  18.5296071
  53.5216951  20.5718136  19.4587266   4.8881936  66.7380047  52.9597855
   4.7007287  65.8035946  52.8705645   5.1022375  67.0251751  52.0721197
  72.6973009  15.7403159  41.4618635  73.3790159  15.3103876  40.9454775
  73.1288958  16.5083182  41.8361998  75.7881641  34.4510651   2.9241234
  75.3442955  33.7122917   3.3405709  75.6595182  34.3099546   1.9861631
  73.4988737  62.9030991  50.3944302  73.4753847  61.9521809  50.5013657
  73.7149668  63.0350494  49.4713211  33.5758066  44.0890741   3.3020383
  33.1881618  43.5062408   2.6491427  34.0056849  43.5009480   3.9229614
   2.2195828  68.5458088  39.3607593   1.5996368  69.1912985  39.7002363
   2.9992893  69.0554190  39.1403294  58.6760712  53.7658978  65.9205008
  58.4553432  54.5984173  65.5028582  57.8667355  53.2563114  65.8813858
  39.9763584  30.3739262   1.3138452  40.6661749  29.7288084   1.1582455
  40.3143501  30.9194064   2.0240885  31.2206388  52.5024223   9.0861976
  30.4947591  51.9625807   8.7733054  31.3592672  53.1443310   8.3898026
  36.0888624  47.2319269   9.8538232  36.2689090  46.9841194  10.7606888
  35.5123568  46.5413427   9.5267677  19.4440007   1.8443188  56.2941122
  19.0073669   2.6106909  56.6659403  18.7296283   1.2934709  55.9740019
  33.0848098  37.7621961   1.1973368  33.8314247  38.1681323   1.6378078
  33.4397578  36.9598198   0.8146650   7.6858318   4.3304932  53.8519526
   7.3569244   5.2183515  53.7113857   6.9589877   3.8692886  54.2705441
  80.6938076  23.1114388  58.3000135  79.7702885  22.8951740  58.4287548
  80.8931255  22.7957153  57.4186373  21.6180825  15.5471194   8.0698466
  21.1094499  16.3490033   8.1902981  22.1348333  15.7075942   7.2802603
  14.1212761   6.0094744  51.6950417  13.4227848   5.3621769  51.5983582
  13.7716150   6.6481674  52.3163605  30.0467825  18.3990657   6.9170618
  30.8520579  18.6063206   6.4429235  30.2738047  17.6401746   7.4544424
  28.4997058  60.9490824   6.4511436  28.1536984  60.3957415   5.7509112
  29.4203424  61.0770702   6.2224954  21.5713549  22.3569775   4.6028176
  22.1132159  21.9501638   5.2789235  21.4942575  23.2712340   4.8756284
  46.8242311   2.4223457  13.1246328  46.8520641   1.7873693  12.4089074
  46.5005589   3.2265922  12.7188540  40.1749563  63.6810064  52.6915598
  39.9092126  62.8373861  52.3256159  39.8064971  64.3292093  52.0913076
  47.1360874  53.0415630   6.0671169  47.3514175  52.2500420   6.5604311
  46.1800909  53.0412006   6.0190898  21.7384458  52.3144865  16.8284321
  21.2383366  51.9389963  17.5530899  22.0222116  53.1698179  17.1510994
  25.8025336   2.0170815  10.7789028  25.2548409   2.4002874  10.0937629
  25.1837468   1.5786624  11.3629603  30.6340122  53.9039183   2.8523636
  30.9081197  54.4435215   2.1107963  31.3588977  53.9657068   3.4744224
  21.9095635  42.6890898  30.6056738  22.6231742  42.0678473  30.4605842
  22.1463943  43.4529972  30.0797582  36.3323665  35.0180721   5.7071084
  36.3565254  34.1765499   5.2515948  35.8292770  34.8453045   6.5028989
  44.8371744  36.8758678  21.6560960  44.8939610  36.5349126  20.7634830
  44.9614477  36.1081314  22.2141004  17.5499916  26.3564491  43.4776163
  17.7333081  25.6726933  42.8333282  18.2401681  26.2586594  44.1336060
  25.2032852  70.1103115   7.2177541  24.2888212  70.1820135   6.9441777
  25.2990746  69.1997528   7.4969381  64.1375875   6.9472641  52.2597837
  64.5311975   6.5960658  53.0585098  64.8049307   7.5322765  51.9011116
  31.7819762  60.8000612  22.4478149  31.3588738  60.0179958  22.8021932
  32.5685406  60.9097958  22.9821444  51.2754345  13.4937656  15.3111517
  52.1209383  13.6539662  14.8920000  50.9391069  14.3668199  15.5133641
  43.5477400  55.2673149   6.9274551  42.6790857  55.5518675   7.2115290
  44.0531731  56.0769510   6.8549591  33.6916232  37.4377918  18.2541931
  32.8989601  37.0203495  18.5913265  33.6028957  38.3574700  18.5043025
  55.1196575  57.5923824  61.0183477  54.6521044  57.0271969  61.6333246
  55.8534861  57.9413939  61.5242243  41.4773178  40.8924294  12.1335709
  42.0482445  41.4155436  12.6962662  40.9308052  41.5358925  11.6824508
   1.0744920   3.8826391  64.0888500   1.4003289   3.0297709  64.3763876
   0.4455601   4.1386208  64.7634983  81.0853672   6.7388558  65.2471590
  80.3974915   7.3782092  65.4323196  81.6969585   7.2036701  64.6760798
  34.8300886  26.8861818  14.9573231  35.0752401  27.1656942  15.8393693
  34.6021581  25.9615302  15.0537694  37.8034067  48.8647652   8.7038034
  37.1728611  48.3612156   9.2186654  38.6138725  48.8242674   9.2114800
  68.1451511  25.1164484   7.6937670  67.3387575  25.3602362   8.1482244
  68.4003592  25.9069204   7.2181064  30.9151959  11.9389880  64.4281387
  30.8136511  12.7583051  63.9437437  30.0212169  11.6816103  64.6535063
  79.3390083  36.0177994   4.1050136  79.2533827  36.8938446   3.7289208
  78.4452963  35.7708025   4.3427283  32.4463964  15.2482557   9.7506505
  31.8299818  14.9784684  10.4314435  32.3674822  16.2017131   9.7202826
  14.1365814  17.5430751  30.7357740  14.6465361  17.2237515  29.9913216
  13.7384844  18.3552933  30.4226446   6.1152083  14.2257953  61.4133835
   5.1680827  14.1169333  61.4990187   6.4681613  13.9175785  62.2480440
  81.9779998  32.8383160   6.9464403  82.3470583  32.9791451   7.8183317
  81.3648490  32.1121550   7.0603216  50.0837660  51.0842466   0.5901126
  50.2092695  51.0355902   1.5378006  50.9615421  50.9693718   0.2260505
  27.3001027  48.0238152  29.0418386  27.2204089  47.2378731  28.5013032
  26.7503023  47.8463745  29.8050332  68.5017300   5.8907515   9.0736002
  68.3534384   5.5405599   8.1951880  68.8686371   6.7622954   8.9252007
  21.8545651  40.8603573  16.7203128  22.1037221  41.7845345  16.7133081
  22.1815252  40.5304813  17.5572789  15.8433664   3.9859021  64.9079084
  15.4556882   3.4129912  65.5695057  15.6249845   3.5704672  64.0736723
  22.4924994  15.2671516  19.1815257  21.8056750  15.7851505  19.6012664
  23.2606363  15.8382571  19.1874361  30.1440454  38.8173008  22.1622419
  30.1976895  38.0515790  22.7341032  30.3813505  39.5539689  22.7254820
  38.2212853  42.3088217  11.3357913  38.0739546  41.4482498  10.9434426
  37.9197335  42.2148943  12.2393823  26.4675212   2.3630157  66.7227268
  26.0966110   3.2341555  66.5821075  25.7105684   1.7771411  66.7201805
  57.1308994  48.2160902  61.5630007  57.8016806  47.9945087  60.9171009
  56.3312769  47.8118610  61.2261963  54.2425537  75.0943279  61.4637947
  55.0327539  74.9360609  60.9473038  53.8007450  74.2456532  61.4917898
  34.8503900  31.9809937  10.5979085  34.7043395  31.3480949  11.3010013
  34.3046832  31.6678071   9.8765558  51.6987679  54.0867086  66.2395684
  52.0131681  53.5993774  67.0010759  52.4751232  54.2017444  65.6915961
  17.5440168   5.3609890  62.5787687  16.9824040   4.5868105  62.5404263
  18.1046367   5.2886879  61.8062973  46.2161398  41.0653639  16.0145354
  47.0054722  41.3819504  16.4538062  46.0565519  41.7036915  15.3193378
  76.6755152  59.7162342  56.7913437  77.0218468  60.2153921  57.5310278
  76.2553787  60.3723955  56.2353182  22.2964382  25.9982562  58.7840271
  22.0751405  26.8375516  58.3804893  21.4775848  25.6992888  59.1794062
  59.2975998  75.0312853  61.6205072  59.9397707  74.3903589  61.9255686
  59.7739267  75.5625534  60.9824610  65.9788179  62.2823286  55.4156208
  66.8215132  62.6909351  55.6134415  65.3680325  62.6807261  56.0356665
  20.0583339  38.7878442   4.5962462  20.3276539  39.5215011   4.0435743
  20.8494830  38.5486197   5.0790364  27.3202372  58.2678843  14.2190301
  27.5075030  58.0045128  13.3180308  26.4383960  57.9358006  14.3872702
  73.0569601   4.1253775  59.7010612  73.4882975   3.5371950  59.0812016
  72.6800299   4.8148218  59.1544151  39.2702007  46.7266798  11.5746176
  39.5469999  45.9629393  11.0683429  38.4391832  46.4635277  11.9700873
  44.0356970  63.8677788  65.3451729  43.2360411  63.7440729  65.8565235
  44.4014883  64.6912813  65.6680775  28.0986738  39.0465236  19.9121165
  28.4555554  38.2641792  20.3325987  27.9768634  39.6692014  20.6288218
  58.2498264  43.8536549  16.3319659  57.6090574  43.9719200  15.6307817
  59.0228939  44.3325758  16.0332477  19.2031074  45.5119801   4.2626384
  18.7722051  46.3573313   4.3888783  18.7633598  45.1300621   3.5030404
  42.1138954  68.8705397  50.8994436  42.0740223  69.1972351  51.7982817
  42.1839476  67.9204798  50.9928036  27.4568582  69.3090296   4.7249085
  26.8302894  69.9582100   5.0446129  27.3235679  69.2939711   3.7771538
  66.8064499  66.2099934  57.0062399  65.9306622  66.5822506  57.1094465
  67.1268272  66.0996675  57.9014587  61.6270828  37.3657012   5.6385714
  61.8152189  38.1978440   6.0725951  60.7076502  37.1925759   5.8408171
  40.7413197  62.2325993  64.2641258  41.1053848  62.7066374  63.5164785
  41.0933828  62.6863384  65.0298977  40.3379297  29.2320681  27.8109074
  40.1023626  30.0044870  28.3248210  41.2948322  29.2416954  27.7889538
  21.7344618  19.0477455   3.0546373  21.2745357  19.7378433   2.5766581
  21.7485690  18.3059990   2.4497862  16.3546824   0.9706502  64.9752665
  16.5948248   1.0451114  65.8988571  17.1773028   1.0984929  64.5028448
  67.2614908  61.8083811  64.3067312  67.1107578  62.3950672  63.5655737
  66.8736029  62.2627497  65.0546122   4.1321367   2.2975498  39.6738267
   3.2722992   2.4097851  40.0791836   4.5539695   3.1517732  39.7665191
   4.8215044  27.2935963  64.4559669   5.2304596  28.1219745  64.7065210
   3.8816652  27.4568391  64.5352507  29.9907422  21.4675760   1.6525801
  30.2552128  22.1782708   2.2367042  30.8122206  21.0441685   1.4033136
  63.6811876  43.7540054   0.6791074  63.5499477  43.3504725  -0.1788956
  62.8139210  43.7432337   1.0840338  48.4161568  34.3212652   7.8123248
  49.2884779  34.7136331   7.7757943  48.2859945  34.1124630   8.7373608
  78.2266903  75.8978939   6.6813064  78.1772566  76.2354517   7.5756454
  77.8671026  75.0126934   6.7391932  58.7996006  39.8804569   9.7342438
  58.9636946  40.5319881  10.4160130  59.4648695  40.0570726   9.0690678
  59.8655176  69.1101360  51.5013599  59.6600485  68.2203913  51.2143564
  59.2303181  69.6617699  51.0447979  43.8852644  46.2646866  17.4055719
  44.5897245  45.8232355  17.8800082  43.2318068  45.5812645  17.2567129
  21.5183258  32.1026492   1.8488126  21.4069104  33.0195165   1.5974739
  22.3030448  31.8193293   1.3795814  47.5453711  30.6349015  14.5978212
  48.3341885  30.3746939  14.1221178  47.2781038  31.4570427  14.1868687
   6.7665792  32.0815325  17.6413596   6.9363779  32.9893041  17.3896623
   7.0943964  31.5637779  16.9060373  34.8374629  39.2542243  22.8732729
  34.4589710  39.5269299  22.0374465  35.4871440  39.9281359  23.0732441
  71.8357801   7.3350763  46.2659454  71.1943054   7.1543920  46.9530344
  71.6989756   8.2567883  46.0469389  62.9357004  71.4680290  61.6684961
  62.5593805  71.6284132  62.5338793  63.8140392  71.8455648  61.7155552
  15.6223738  49.5985270  12.9392469  15.6367731  50.5012369  13.2572734
  15.1710522  49.1093922  13.6272025  40.3661013  39.6633387   7.9332864
  40.0274229  38.8625789   8.3336794  39.6134520  40.2540827   7.9055101
  63.2785797  68.7254953  49.5610619  63.6633158  69.0585804  50.3717756
  64.0275955  68.4255695  49.0460396  29.8169351  37.5471425  28.7511826
  30.6045604  37.8487468  28.2985091  29.9350333  36.6007471  28.8325667
  51.8890572  70.8211184  50.2750349  51.4189196  71.6270256  50.0612307
  51.6323471  70.2048969  49.5890284  40.7106256   2.2587411  17.1962547
  40.4192829   2.4311242  16.3009143  41.4426708   2.8607827  17.3300207
  39.6130896  48.2678270  16.5739882  38.8315892  48.0771780  16.0551965
  39.4568276  47.8316498  17.4115825   2.0054621   1.1743560  64.9519205
   2.5884789   0.7073414  64.3534040   1.7267677   0.5098523  65.5819988
  41.3785601  48.3117056  12.4160576  40.5956841  47.7617502  12.3862755
  41.2317085  48.9741850  11.7409348  27.6427126  35.3733444   1.1800718
  27.7995086  35.7426572   2.0491263  28.0456495  35.9987545   0.5777962
  26.5389132  20.7396412   2.7006006  25.6646299  20.4408503   2.4504314
  26.8716836  21.1854243   1.9216439  31.9444180  38.0258918  26.9349074
  32.0129752  38.1568050  25.9891820  32.5796175  37.3363256  27.1279168
  43.9050817  42.4417162  19.3311024  43.6347675  43.2277489  18.8564289
  44.8452282  42.5568295  19.4693208  18.1099951  50.3552341  23.3577156
  18.7811196  49.7615051  23.0210996  17.2936654  50.0372887  22.9720378
  62.7437544  48.1859779  13.8843060  63.0494928  49.0531731  13.6183560
  62.4566031  48.3006573  14.7901881  20.6135345  53.8232088   6.3755143
  19.8029268  53.8018656   6.8841320  20.3582263  54.2005682   5.5337006
   6.4589459  35.6997490  54.9525404   6.9536918  35.1022840  54.3917418
   5.6886625  35.1970124  55.2174044  60.1952076  49.2934275  15.7914472
  59.3122625  48.9705515  15.6114781  60.3525305  49.9509573  15.1138508
  63.1246805  72.2044277  64.4850492  62.6158810  71.4006042  64.5909691
  64.0318966  71.9340801  64.6268272  50.1790762  40.6065226   6.8525326
  50.5202961  41.1017084   6.1078250  49.2296743  40.7155228   6.7978585
  72.7323723  25.8943462  31.1048150  73.1115866  25.5862832  30.2816939
  72.2029591  25.1594591  31.4144826  51.1328220  55.5322456  14.7194874
  51.7846632  54.9959183  15.1708031  51.3498592  56.4312363  14.9663591
  71.8048573  29.9125028  -0.0607030  72.4170637  29.6039915   0.6073182
  71.7484045  30.8570099   0.0840410  19.3817234   0.7075755  59.0422726
  19.6374583   0.0712328  58.3745193  20.0405383   1.3990825  58.9789391
  79.1132689  59.0869522  52.9849911  79.8668671  58.8458681  52.4462843
  78.3948374  59.1875601  52.3605251  56.5625906  56.1747646   3.0260566
  57.0354176  55.5696583   3.5974735  57.1548462  56.9197369   2.9236716
  29.7075987  14.9534929  66.8363667  29.7187781  14.7286892  65.9060049
  30.5084562  14.5634294  67.1866608  13.0736232  75.8674765  65.7699347
  12.7251196  75.9699345  66.6555309  13.8430476  76.4364529  65.7480192
  19.2001033  21.9174051  61.3582706  19.9878693  21.8824673  61.9008875
  19.3864572  21.3282061  60.6272793  31.8169212  26.9509172   1.5813422
  31.6968274  26.3119340   0.8788405  31.6274738  26.4637351   2.3832113
  70.0319338  50.0299883  12.8322220  69.5197821  49.3131256  12.4580014
  70.6107759  49.6056414  13.4655488  23.0717897  28.8633013  52.3763418
  22.7560449  28.0518961  51.9786549  23.5491800  28.5782075  53.1554794
   2.3969230  15.3252220  63.2432127   2.8181821  14.8158216  62.5509071
   1.8436593  14.6934605  63.7025690  74.5503759  64.6907234  55.8293581
  74.0255928  63.9590645  55.5045319  75.4561234  64.3947172  55.7385969
  47.1185827  33.0715537  16.9967854  46.2040901  33.3219457  16.8654692
  47.5057364  33.1112957  16.1222780  43.4811878  36.9211030  17.2599876
  44.0722609  37.6159215  17.5499761  44.0583420  36.1850762  17.0565486
  37.7254486  16.8569314  65.1973629  37.1567082  16.4016020  65.8182001
  38.4860206  17.1182346  65.7164764  41.4549398  19.2767835  27.1185970
  41.4093828  19.9492657  26.4389467  40.8756971  19.5959723  27.8105712
  40.3416681  60.7937336   6.9203043  39.6543860  61.4060450   7.1828842
  40.7592058  60.5355883   7.7420431  29.6311808  49.8719454   7.2672880
  29.1476464  50.4450035   7.8622937  30.2916288  49.4547796   7.8204721
  30.7261753  41.7216587   2.6457557  30.8373022  40.7804251   2.5117478
  30.1217532  41.9922733   1.9546165  28.8780570  25.9448195  20.0034380
  29.2142415  25.1087618  19.6806097  28.1630564  25.7040572  20.5925393
  40.4896498  54.2616749  10.4306662  40.7787085  54.1387463  11.3348591
  40.1456356  53.4070396  10.1708949  21.7095280  21.2938714  63.2466364
  22.4306917  21.7669988  62.8315401  21.3594270  21.9086337  63.8914061
  29.6033955  37.4379611   0.1031765  30.4287076  36.9665313   0.2165170
  29.3759704  37.7377295   0.9833177  44.1925669  40.0415277  17.6317704
  43.8317299  40.8395815  18.0179477  44.9982166  40.3270245  17.2008920
  36.5697312  55.7469988   9.9456960  36.9424272  55.5900908   9.0781081
  36.2702513  56.6556931   9.9169517  27.2453189  34.4996834  21.0097075
  27.6927328  33.7093067  21.3119602  26.6544724  34.1923642  20.3221846
  73.5692978  62.0524693   9.1421181  73.0267048  62.8141880   9.3460864
  73.3543301  61.8416643   8.2335031  58.3216524  76.2608004  38.0041552
  58.2018280  75.8731747  38.8711166  57.5080633  76.7378044  37.8405380
  70.6611109  70.5630493  65.3138256  70.6536198  70.9945679  66.1682081
  71.0894251  69.7221327  65.4739666  54.3072796  41.5094328  15.9634018
  53.5866308  40.9023285  15.7951212  53.9346743  42.1663427  16.5515065
  24.0057945   2.8962764  30.4513073  23.7200618   3.4935594  31.1425686
  23.7719870   3.3425367  29.6374178  25.1341176  37.0495200  59.8260260
  25.2531600  37.5402951  60.6391668  24.2222619  37.2080731  59.5818806
  61.4933729  47.0207357  16.3439620  61.9942522  47.0328474  17.1595633
  61.0038185  47.8432417  16.3513017  55.6913519  50.5563116  15.0558364
  55.0275230  49.9298906  14.7674584  56.4688921  50.3340864  14.5437038
  25.5093241   4.8099998  65.6127691  25.8655357   5.4637939  65.0111914
  24.5673704   4.9799612  65.6208229  15.4174817  22.3414922  64.2343616
  14.6974659  22.3632026  64.8647118  15.2451921  21.5658522  63.7005758
  10.2281952  28.9254451  43.2377434   9.9040806  29.1553187  44.1085672
   9.5410210  29.2212272  42.6406336  44.0877914  51.0887766  27.5005221
  44.3935394  51.7392159  28.1327271  43.1387520  51.0636902  27.6226711
  43.1246519  17.3659861  27.6129484  43.8669586  17.2936308  27.0129657
  42.6103354  18.0970764  27.2705793  23.4466219   5.2791232  60.5037689
  23.8245440   4.4342801  60.7479954  22.9017997   5.5230790  61.2520218
  33.5416031   2.0970549  43.8341045  33.9553833   1.5927508  44.5346022
  32.7067900   1.6543853  43.6812592   0.2867576  76.3452291  29.6633363
   0.0122329  76.7251921  30.4979014   1.2381240  76.2689686  29.7362924
  38.2536125  44.9221230   5.0677490  38.0704927  43.9903927   5.1885068
  39.2071962  44.9874306   5.1191694  17.1374929  25.5852175  47.0380163
  18.0399644  25.4135442  46.7691135  17.2110796  26.2759233  47.6966095
  53.8820219  34.5400572   0.2494541  53.3694029  35.2642202  -0.1097670
  53.3635187  33.7595296   0.0541008  10.7481265  20.7100248  48.5556269
  10.8024108  20.5387640  49.4958162   9.8128784  20.6632257  48.3572578
  67.2762537  44.1984272  10.9711337  67.5646257  45.0110435  10.5555356
  66.3205433  44.2510748  10.9625828  43.4038115   3.6751884  17.0979106
  43.5565519   2.7337772  17.1794415  44.0215826   3.9606506  16.4247799
  16.4967513  36.5163207  54.0708685  16.7691731  36.2703919  54.9549150
  15.8295560  37.1895552  54.2044210  37.2739816  32.1501732  12.1272480
  37.1787047  31.1998725  12.1911275  36.5659761  32.4231887  11.5437913
  31.4352632  35.7287312   6.3540703  30.5246210  35.6883168   6.6461819
  31.5408778  34.9609709   5.7922685  53.5924482  43.5150051   7.4383128
  53.9583302  44.2835808   7.0005345  53.8483906  42.7785635   6.8829960
  34.3355465  45.1911592   8.6027092  34.8479795  44.4375324   8.8954389
  34.3938613  45.1640606   7.6476717   5.4401410  11.6684949  51.5908480
   5.2498841  12.5957644  51.4487028   5.2017426  11.2458563  50.7657576
   6.0093516  20.5313301  46.4684534   6.2098259  20.6555295  45.5407619
   5.1974612  20.0243282  46.4722586  37.2532678  36.9580579  22.1448851
  37.0164561  37.0589185  23.0668283  36.7093945  36.2335682  21.8357730
  71.0923004  52.0767498   5.3054965  71.2643480  52.9631281   5.6232435
  71.8893099  51.8319511   4.8353085  51.7716742  70.7016754  57.2750759
  52.3321247  69.9262190  57.3033571  51.3355541  70.6511021  56.4245033
  79.9728394  62.3079014  64.9501181  79.4273520  63.0871677  65.0569868
  79.7811985  62.0010900  64.0639067   5.8816051  46.8119478  19.6095335
   6.7965353  46.6137028  19.4099522   5.4039395  46.0235691  19.3516040
  33.7654495  46.7335749  12.6534271  33.3282709  47.5792313  12.7532876
  34.0863729  46.5247822  13.5307229  49.3009138  70.8872080  21.4919233
  48.7962246  71.2421703  20.7601261  50.0436163  70.4464293  21.0791993
  58.6758947  64.6623564  59.7057581  58.6005592  65.5683565  60.0053024
  59.5584679  64.3971443  59.9645233  27.5040030  20.9447289  21.2898636
  26.6031837  21.0845399  21.5817738  27.4615145  20.1540327  20.7520676
  79.4021177   0.1804331  18.6983228  78.5762024   0.6368462  18.5377526
  79.9506187   0.4063931  17.9471099  12.9011881  65.8602333  19.3249941
  13.8066435  65.7156944  19.0502417  12.9601920  66.0282421  20.2654862
  46.0020828  49.7137356  18.1426489  45.3640938  49.8933506  18.8332605
  45.4717970  49.4661427  17.3852015  49.8291016  38.8697600  16.7313552
  50.7036018  39.0858483  16.4076436  49.2510414  39.0311265  15.9856772
  36.0018468  53.1651020  18.5316932  35.9496713  52.2321606  18.7393630
  36.4543843  53.1979227  17.6888609  28.0220008  16.6645920  62.3704815
  27.4503899  17.4219096  62.4968290  27.4490690  15.9903562  62.0052624
  29.8845124  42.4202204  10.0690317  29.2257094  43.0820847  10.2791488
  30.7211185  42.8505707  10.2454424  25.6657410  65.3888512   0.8725736
  25.3417063  64.4882202   0.8626916  26.2845922  65.4127455   1.6024253
  19.4310176  26.1359119  23.0871630  20.2310348  26.5384698  22.7493024
  19.4990122  25.2161694  22.8308702  73.4011841  69.9038029  48.2503033
  73.7954998  69.1128206  48.6178637  72.8786278  69.5901537  47.5122023
  34.9352741  40.5747223   1.4913319  35.4371119  40.7923555   0.7058208
  34.1412497  41.1048746   1.4228007  41.9857359  46.7577171   2.7133030
  41.9397116  47.5863361   2.2363296  42.8557682  46.4133024   2.5116724
   0.8139323  11.6495883  56.6822958   0.6556956  12.2685552  55.9695053
   0.6347718  12.1500766  57.4783134  32.1948671  24.1541147   8.7335479
  32.1008205  24.2184925   7.7831566  31.7725444  23.3256245   8.9604437
  19.7597563  34.8722792  59.2518663  18.8653207  34.9697709  59.5785379
  20.2856636  34.7168446  60.0364017  55.0420713  61.2222862  63.9114857
  55.9502935  60.9704876  64.0787029  54.5256615  60.4825258  64.2313385
  69.1371584  27.8276849  35.4774570  68.4198093  27.3989010  35.0107837
  69.6034241  27.1120453  35.9095311  34.5209718  24.1920853   2.5846922
  34.9503160  24.5597267   3.3571780  34.9398565  24.6327448   1.8453765
  26.8760705  64.3410540  21.0024452  27.1101737  63.4435558  20.7659602
  26.6060209  64.7435474  20.1770353  70.0562382  44.1934204  12.6899707
  70.8291245  43.6389828  12.5828147  69.3479252  43.5810804  12.8888869
  13.7264156   3.0504918  10.6525564  14.0364993   3.1185967   9.7495389
  14.1374242   2.2535363  10.9874690  33.2480264  31.9573927   8.1002444
  33.6713481  31.8444300   7.2492051  32.5150704  32.5480461   7.9266459
  69.6179724   4.8904285  65.8143282  68.6816263   4.9633431  65.9991932
  69.6738148   4.8859888  64.8587704  71.5087652  17.9876900  17.7744865
  70.7147360  17.4555004  17.7242815  71.6439772  18.1283319  18.7115932
  71.5324402  54.5921278   6.4624125  71.8717623  54.4794750   7.3503333
  71.7561388  55.4941463   6.2331671  23.1110120  37.2081399  10.4177797
  23.2686090  36.4953327  11.0368931  22.1727943  37.1624470  10.2336919
  40.9800243  45.7544613   5.2948081  41.8017340  45.7146883   5.7841432
  41.2104225  46.1914253   4.4749224  78.5132027  64.2966843  66.0280609
  78.1776810  65.1931190  66.0358429  78.7044477  64.1045475  66.9460678
  64.9063015  54.1128254  67.0659590  65.0835752  53.7158728  66.2131786
  64.0572643  53.7546873  67.3250103  10.5000901  13.7858868  59.2719460
   9.6998781  13.3866143  58.9306641  10.2198863  14.6395981  59.6019363
  58.7255383  49.3528032   5.7567668  59.2470312  49.7229195   5.0445211
  59.0142536  49.8270559   6.5364850  68.0385590  49.8664331   3.9616734
  68.5103607  49.5922422   4.7480911  68.7120152  50.2497816   3.3997741
   3.6331230  13.5071278  61.6198635   3.3783954  13.1138015  60.7852125
   3.7117237  12.7655840  62.2200012  38.6961436  13.4936690  57.5791740
  38.0032706  12.8879738  57.8424120  38.5410190  14.2782187  58.1051493
  40.6397343  66.6464376  22.0106936  41.3121843  66.5876150  21.3320327
  39.8231173  66.4366007  21.5575504  43.0031824  33.6264253  12.5239921
  42.8923893  34.1913414  13.2887328  43.4070063  34.1914773  11.8653023
  66.7932701  38.5774589  21.6875267  66.9227362  39.3571830  21.1476183
  66.5587282  37.8904033  21.0636854  16.7406619  42.0540524  25.4857588
  17.6438951  41.8864107  25.2168775  16.6434693  41.5765476  26.3096356
   6.4916849  13.0884564  41.9436693   7.2674739  12.6890707  42.3372078
   6.7669410  13.3241868  41.0577250   4.9049130   5.7886809  55.3579855
   4.6795043   5.2093124  56.0858297   5.1782507   6.6046494  55.7771683
  41.8975592  52.6933146  21.4355707  41.2570000  53.2173681  20.9546542
  41.9176865  53.0826759  22.3097706  54.1671991  68.8640547  29.6039891
  53.9784384  69.6418953  30.1289296  54.7971392  69.1643333  28.9488244
  22.7452016  18.6169398  48.5341883  22.9548931  19.2812443  49.1906643
  23.4659815  17.9895353  48.5896158  21.4456105  70.9212303  12.8449464
  22.1010447  70.6789064  13.4990990  21.9485235  71.3368607  12.1445453
  26.4347172  67.2672653  10.6449437  25.6163549  67.0825148  11.1057925
  26.5085363  66.5661430   9.9974799  44.7064257  57.3234701  21.4733124
  43.8012505  57.0123053  21.4816856  44.7492838  57.9548931  22.1914339
  29.3138266  45.7095289  14.3848729  29.7426105  45.4014683  13.5864520
  29.0485311  46.6068697  14.1833150  51.9106054  43.1767082  14.5064044
  52.0798826  43.7935543  13.7943113  52.0175505  42.3137617  14.1062558
  60.8595991  54.1888046   9.3863457  61.5010452  53.6100435   9.7984296
  60.0158644  53.8934946   9.7285968  50.0821781  54.8843384  20.4424357
  50.9390259  54.4847918  20.5921388  49.6634674  54.3174839  19.7946763
  41.1230183  57.2544241   3.7885061  40.3706026  56.7118311   3.5525191
  40.7402563  58.0856752   4.0691254  30.4480934  20.8176661  60.2742863
  30.1713967  20.4094625  59.4538975  30.7972789  20.0948238  60.7956314
  52.7810335  34.5052433  15.0434005  51.9702387  34.1278720  14.7021711
  53.4532547  33.8562155  14.8357725  71.8019104  64.0515280  62.1169281
  71.7694759  64.1469002  61.1650419  70.8864737  63.9546537  62.3792648
  31.0196376  38.7405920   2.5685322  31.6709948  38.3254194   2.0032036
  31.4402652  38.7833619   3.4272957  13.3790350  20.7354546  11.1448455
  14.2771125  20.7514858  11.4756489  13.3601916  19.9947441  10.5388558
  60.6966305  35.8524418  15.9628916  59.8706007  35.7915163  15.4831100
  60.7456636  36.7672944  16.2401462  12.9398096  22.7522469  66.0381842
  13.0074584  22.2244382  66.8338442  12.0832789  22.5282645  65.6742907
  55.9519482  32.4775505  11.6474438  56.0184908  31.7101741  11.0791695
  56.0161877  33.2235098  11.0510814  54.9122143  34.6567726  17.2718179
  54.4921160  34.7947979  16.4228785  55.7648945  34.2778420  17.0583141
  69.9845695  68.8708401  50.0678110  70.3165579  69.5180655  50.6899977
  70.2290630  69.2164755  49.2093325  62.3916531  50.3996801   3.0527747
  62.0312595  50.6522846   2.2027490  63.1294680  50.9946442   3.1864724
  46.0803127  29.9470496   8.1817681  46.8149805  30.2575850   7.6525605
  45.8565474  30.6910372   8.7409127  33.1496954  54.3653536   4.1204089
  33.6794138  55.1412916   4.3035570  33.7804365  53.6458969   4.0924460
   6.9253135  53.9215803  17.3769343   6.7073375  53.3701181  18.1283402
   7.4520487  53.3575439  16.8106782  60.0384951  46.9811153   5.8407617
  59.3592691  46.3431263   6.0595179  59.5564127  47.7781487   5.6203932
  23.5513997  20.1858163  15.0765443  23.1319261  19.3262327  15.0392580
  22.8700757  20.7706237  15.4082501  27.8332376   2.3173052  54.7672129
  28.0075932   1.6014248  55.3782320  28.3290553   3.0573422  55.1175547
  31.1057615  28.5968471  31.0397768  31.7353106  28.2435775  31.6683459
  30.4398608  27.9140854  30.9582543   6.2396234  55.3258324  12.3900378
   5.6291676  54.8808718  12.9779041   7.1031153  55.0134420  12.6602697
   4.3140802   1.4670135  52.2587156   3.6410937   1.0130657  52.7659178
   4.2270637   1.1124239  51.3738871  22.8582382  18.9220595  56.5638924
  22.7357841  19.8706436  56.6016245  22.2030306  18.6208260  55.9344530
  14.9446130  23.7119389  61.4407158  15.3194368  22.8714323  61.7039347
  15.5674100  24.0631366  60.8043051  25.5401182  15.4340506  61.0512733
  24.9968624  14.8779702  60.4928112  25.8908725  16.0988557  60.4586220
  54.3761253  40.8658266   9.6917248  54.4908428  40.3820419   8.8737857
  53.4462929  40.7704735   9.8980033  33.4916687  49.8019171   1.0094658
  34.4013929  49.9685144   0.7627238  33.5041761  49.7744608   1.9661902
  27.6298308   7.5942373  65.3789330  27.5914001   7.5483125  64.4236088
  28.0752754   6.7881429  65.6397486  75.8834505  50.6965685  40.9726667
  75.5960369  49.8691607  40.5866385  75.1772642  50.9396267  41.5713787
  46.2779284  37.4629354   5.3359014  46.1175251  36.5922999   4.9719012
  45.8512259  38.0612874   4.7226056   0.1248488  43.2476139  61.3678026
  -0.2873910  43.3251095  60.5074024   0.9432290  43.7373447  61.2862635
   6.8600953  69.7300339  64.4423056   6.6304159  70.6344891  64.2291260
   7.5892735  69.8067617  65.0576448  40.7226706  50.2990532   1.6106197
  41.2622070  49.6284485   1.1917932  40.6309175  50.0017500   2.5158393
  14.8288596  19.7682393  59.1901970  15.2867484  19.7382724  58.3501530
  14.8849463  18.8734829  59.5255995  59.0170908  57.1604967   9.7144705
  58.7732172  57.8658009  10.3138876  58.1921625  56.8965149   9.3069899
  60.9297371  75.0874329  49.5969343  61.0160160  74.3835449  50.2398396
  61.3477993  74.7434044  48.8075638   9.7450888  34.3106627  48.1017399
   9.1774160  34.0078545  47.3930168  10.5168259  34.6614385  47.6572084
  68.4660152  49.1030142   0.1213922  68.4664920  49.9714110   0.5240287
  67.5396016  48.8983045  -0.0053988   5.4681677  56.0367441  34.1243052
   5.9226590  55.1969671  34.1909742   6.0777277  56.6019678  33.6497641
  52.9555416  35.5519676  11.6700613  53.6892653  35.0474358  11.3188851
  52.2511816  34.9117279  11.7710745  40.5178404  37.6454115   9.7187400
  40.8768225  36.8504238   9.3245852  41.2616158  38.0469108  10.1679945
   0.3306361   5.4754794  60.4908419   0.7167789   4.8708823  61.1245537
  -0.1372079   6.1166567  61.0258532  37.4646068  47.5256109  15.1974797
  37.6478910  46.6122723  14.9773633  36.8172359  47.4771881  15.9008980
  71.6416407  60.8256865  23.2570386  71.3278532  61.0506248  24.1329217
  70.8657312  60.4997301  22.8010273  39.1140628  59.1974449  14.3105590
  38.8481569  58.9596796  15.1988125  38.3234358  59.5629120  13.9136052
  32.7159882  65.0887203   4.2883554  32.5954652  65.5139256   3.4392938
  32.1731138  65.5977583   4.8903543  31.5439582  69.1284227  41.2111568
  31.5965199  68.2050991  41.4580154  31.5684557  69.6006250  42.0434189
  52.6349449  59.1894150   3.7766591  52.9522657  58.3565092   3.4276572
  53.4298849  59.6805429   3.9842513  49.4400120  49.6053267  11.0035634
  48.6510992  49.9640799  10.5971909  49.2982674  49.7190952  11.9433486
  50.3024006  62.5729656   0.5530681  50.6554413  63.4077930   0.2454041
  49.4708300  62.4787855   0.0884666  62.7052927  74.8922729  25.6581092
  61.9258022  74.3439484  25.7473683  62.7831173  75.0464916  24.7166252
  35.6371236  36.5597916   2.3227340  36.5085626  36.6219234   2.7138448
  35.7413125  35.9370089   1.6033450  57.5622559  50.3021622   9.6388000
  56.8722153  50.9471655   9.7938752  57.1829891  49.4717693   9.9266231
  77.9350424  48.5539150  21.3719010  77.8704262  48.2282162  20.4741406
  78.3968353  47.8617954  21.8451309  64.3282127  55.9465551   8.2181072
  63.3960056  56.1099720   8.3613437  64.4300890  55.9589338   7.2664237
  57.4904442  34.5724893   5.2936625  58.1706905  34.4236541   4.6368948
  56.9633150  33.7736654   5.2777928  19.2526329  26.9273973  51.0601187
  20.1868606  26.9887257  51.2593412  19.0624702  25.9897447  51.0897255
  44.6055794  34.5890021  16.4581430  44.5807695  34.8008561  15.5250108
  44.4756460  33.6412716  16.4921200  56.9092846  76.6989803   5.5517268
  56.4056396  77.0533943   6.2845075  57.1713352  77.4687147   5.0466853
  56.7005968  44.4805813   4.0304053  57.3576784  43.9522314   4.4835275
  56.4706039  43.9653444   3.2571888  58.4003544  48.1298923  11.7150950
  58.4794235  47.5753975  10.9388793  59.1488361  47.8871155  12.2601306
  64.1089535  43.2775307   5.1427639  64.6137953  43.4947634   5.9264565
  63.9562607  44.1201210   4.7150236  58.6762619  69.3979025   3.0520085
  59.4392061  69.7928953   3.4740663  58.2272291  68.9314890   3.7570277
   9.6284473   2.5156614  66.5490389   9.6313381   1.6474190  66.1460781
   9.9833488   3.0941653  65.8740520  45.2028322  73.9134645   3.6879802
  44.9055862  73.9191628   2.7781206  44.4778490  74.2998743   4.1792226
  80.1508808  57.6725912  60.0985813  79.6938467  58.4745407  60.3520060
  79.6828794  57.3653507  59.3221712  28.5189843  22.5145745  65.9021902
  29.1175985  23.2101250  65.6299734  28.9902902  21.7039943  65.7096767
  68.1306887  62.1604967  61.4707565  68.8383579  61.9026613  60.8800268
  68.5692263  62.6345205  62.1773100  49.7325516  25.6408334   2.4156141
  50.0045919  25.3920341   3.2989740  49.6627998  26.5949965   2.4463049
  15.8676934  62.9091358  63.0113554  15.6058311  63.1183004  62.1147442
  16.3641882  62.0946217  62.9320335  78.3523369  75.6275463  54.1880226
  77.9234648  75.5661011  53.3344841  79.2419577  75.3103685  54.0324593
   1.3865356  62.7548933  51.3428640   1.2128456  63.6779118  51.5275335
   1.7178701  62.4035168  52.1692944  54.6670437  28.5971689   5.6334972
  55.2936792  29.0427089   5.0633574  53.9947224  28.2661414   5.0379860
  81.4140797  57.2933102   8.7927389  81.9459820  56.4978504   8.8161379
  81.0186958  57.3427391   9.6630597  60.1442289  55.5009937  56.6270065
  60.7656431  55.0293922  56.0723305  59.4765282  54.8507452  56.8451500
  73.4259224  65.4757357  63.6456585  74.2758751  65.7206726  63.2798481
  72.8650188  65.3444386  62.8812075   6.6642749  66.4876747  64.1458225
   6.6977203  67.4432182  64.1911364   5.7309139  66.2786531  64.1829681
   9.4116986   2.4231498  39.6042109   9.0768164   2.0551005  38.7865162
   8.6814153   2.3463614  40.2182293  49.9108028  55.8383036  65.0250387
  50.5868816  55.4299593  65.5657864  50.3353930  56.6120291  64.6544981
   1.6200191  51.7442036   1.7162882   2.5734571  51.7996454   1.6521506
   1.4632022  51.1918879   2.4821794   1.3934723  53.7126255  59.6265507
   1.3032515  54.5453215  60.0899172   2.1023996  53.2599020  60.0833797
  45.9840155   6.0592103  50.3973007  45.8745193   5.9815365  49.4495630
  45.5830479   6.9002616  50.6165981  40.8936739  20.4945469  58.1779051
  41.4866352  20.5564404  57.4290371  40.9176493  19.5705462  58.4266615
  58.8181782  71.8603706  53.7061119  59.3827915  71.3606596  54.2958021
  57.9301548  71.6791439  54.0140104  10.6926930  61.7139864  50.7869673
  10.5371189  61.5269613  49.8611975  11.4853561  62.2505331  50.7930088
  74.9428225  71.9835043  55.7947683  74.2045689  72.5221586  55.5100536
  75.6023407  72.1003437  55.1109409  63.1489944  45.1820326  57.1421337
  62.3947239  45.7682610  57.0817614  62.9646826  44.6322441  57.9037094
  15.6506252  65.5232811  43.4708738  16.5832543  65.3442287  43.3509731
  15.3340554  65.7417297  42.5943470  18.7891138   4.8791543  46.1316109
  19.4788718   4.4270015  45.6457901  18.2203257   4.1776687  46.4488316
  19.8916924   8.9592224  57.9569769  19.3795264   8.3658767  57.4075603
  19.3333566   9.1239798  58.7168121  49.8689651  67.2966146  57.1234655
  49.0394878  67.1850586  57.5879526  49.7962093  68.1549644  56.7061186
  42.0176125  44.3912077  17.2188878  41.7494583  43.5421658  16.8675327
  41.6370726  44.4181204  18.0967832  20.9303093  60.9113455  61.1194897
  21.6666937  60.5495882  61.6125441  21.3205171  61.5919685  60.5711079
  34.2587113  37.3892307  15.5109811  33.8531876  37.0685697  16.3165605
  33.5341930  37.4586511  14.8893034  81.1261654  76.3097239  40.6228828
  80.4660416  75.6198835  40.5551100  80.6558323  77.0555353  40.9954262
  48.0160475  12.3030186  40.1426029  47.5314951  13.0994940  40.3595495
  48.9364624  12.5594664  40.2000952  22.1868253  16.2987506  45.0907612
  21.9076872  17.2043073  44.9555445  22.7930069  16.1249089  44.3706560
  38.6537313   5.6491017  64.3725395  39.5172620   5.2383810  64.3294668
  38.5107636   5.8088809  65.3054190  33.7440252  20.8667469   6.4428240
  33.2202268  20.7679701   7.2378784  33.0994678  20.9652138   5.7420516
   3.9960662  67.4959230  63.5005045   3.2727653  66.8743658  63.4184361
   3.8594866  67.9112816  64.3520021  15.2222371  69.9669933  43.1737328
  15.7129502  69.6714687  43.9406061  14.8949146  69.1613245  42.7737474
  35.9509802  15.4319990  29.3816447  36.7368078  15.4544401  28.8355637
  36.2410378  15.0341928  30.2025270  70.1259279  75.4783201  48.8619566
  69.1778469  75.3675079  48.9333439  70.4831314  74.6094894  49.0457201
   1.9167018   9.2451972  66.0100746   1.2469582   8.9135712  66.6081572
   1.8971039  10.1945031  66.1311769  24.6287489  13.7988853  58.6491632
  24.3807006  13.5551584  57.7573681  23.8166285  14.1137743  59.0460682
  23.7985420   0.2535967  64.1237450  23.7636089  -0.4128940  63.4375954
  23.6328745   1.0776759  63.6658382  62.8424931  73.6730909  30.2107978
  62.2603607  74.3319416  29.8322845  63.4039783  74.1653013  30.8097076
   5.4997152  70.1308680  56.0190201   5.3392404  69.4551182  55.3603554
   5.3455096  70.9556866  55.5584478  40.6859398  43.6972857  11.9357979
  39.8255134  43.2814693  11.8810570  40.7810402  43.9302731  12.8593266
  58.7061167  30.3387618  11.9632840  58.3075094  30.0869703  11.1302507
  58.3179331  31.1896539  12.1670556  74.5372343  77.0588875  22.7794695
  74.0300560  76.3105392  23.0940676  73.8904619  77.6284885  22.3629689
  60.8951712  46.8771553  12.3803985  61.6480827  47.2552109  12.8347409
  61.2722349  46.4313269  11.6219199  75.4444456  57.8442669  38.6475945
  76.3577509  57.9449511  38.3793163  74.9814081  57.6181030  37.8409481
  11.7606902  38.5990191  28.0095434  11.7851520  38.6960721  27.0575905
  10.8498812  38.7757277  28.2449865   4.4490528  13.7709570   6.2882668
   4.4631553  12.8727627   5.9576917   3.5285074  13.9369893   6.4913952
  22.0281720  57.7462196  46.4687634  22.8840327  57.8128910  46.0453367
  22.2087765  57.3244715  47.3088455  57.2479868  30.2326059  61.3730907
  57.0314646  30.4226542  60.4602766  58.1481504  30.5417013  61.4750814
   7.3741466  37.3238659   0.8765480   7.1776849  38.2390428   0.6763390
   6.8982834  37.1488118   1.6884239  53.7583447  13.2650650  13.9672756
  53.9133596  12.7722967  14.7731173  54.4095564  12.9285371  13.3517230
   3.0617103  47.7273321  14.8150492   3.2345980  46.7958403  14.6784294
   3.7491706  48.1735706  14.3205786  15.4263651  72.1440792  21.2577271
  15.0769484  72.7132607  21.9434190  15.9848237  71.5221739  21.7241907
  17.1091819  52.2574806  26.3135839  17.5091136  51.4638376  26.6691399
  17.3573160  52.9471874  26.9291854  44.9085379   3.5416338  45.3413868
  45.2883530   3.9909628  44.5863485  45.6601429   3.1645799  45.7987261
  73.3516073  37.4409509  14.9732244  73.4050274  38.2438850  15.4915655
  72.9691744  36.7964506  15.5687022  50.6905174   5.6702048  36.5939546
  50.0512552   6.3444930  36.3639259  50.9967089   5.9180880  37.4663281
  13.6133111  70.0690603  50.6556368  12.7017605  69.8581982  50.4535389
  13.6962652  70.9991980  50.4454136  25.5825448   8.4726351  32.5216770
  25.3328466   8.7478864  31.6395664  25.7545900   9.2906022  32.9881144
   8.3031690  44.0768623  27.3591375   8.4807527  44.9040365  27.8068876
   9.0771264  43.5405064  27.5310159  14.4090331  32.2489810  51.9962883
  14.1524935  31.3354778  52.1225023  14.4896257  32.3462200  51.0474586
  14.0996051  66.7994738  34.7827268  14.2945051  67.3127604  33.9986444
  14.9581122  66.5766954  35.1426792  13.0804777  60.1379204  24.9660134
  12.3482370  60.7033825  25.2115798  12.8516626  59.2804432  25.3246331
  71.2269545  75.5867624  13.8686872  70.3663111  75.3718138  13.5090780
  71.6343355  76.1388397  13.2012427  59.3960190  57.9374599  41.2577009
  59.5600843  57.5717974  40.3884459  59.0316486  58.8060379  41.0872936
  77.5791788  62.0237827  30.9071779  77.1363401  61.1810207  30.8077765
  77.5476789  62.4153233  30.0342894  77.6933146  58.4895658  36.6660357
  77.5697708  59.3894768  36.9679070  78.5021019  58.2034349  37.0905709
  39.7521257   0.2176470   7.8387547  39.7761273  -0.6508606   7.4370700
  39.2446351   0.7506587   7.2267216  18.9341104  65.1342154  24.4106889
  19.0687120  65.4379940  25.3083706  19.0717959  65.9128094  23.8711762
  15.8611369   0.2654631  19.5840204  16.5065503  -0.0270241  18.9404988
  15.5778050   1.1228353  19.2664325  52.8078985   2.4723609  10.1308656
  52.3603678   2.0290296  10.8515632  53.6358547   2.7684978  10.5090570
   7.0331204   4.3418419  10.2848959   7.4173343   3.8898528   9.5336848
   7.4261057   3.9164573  11.0470259  27.3716331  66.1929321  30.6966233
  26.9574046  66.4037466  29.8598409  28.2315636  65.8469629  30.4577541
  40.9171724   6.7502511  36.5020418  40.8948946   7.7040303  36.5797591
  39.9965978   6.4921790  36.4553928  14.0249205  47.9070616  39.3170285
  13.9402580  48.7778759  39.7052860  14.9682498  47.7812815  39.2143536
  43.7150621  11.1870861  38.5155845  43.4900808  12.0770359  38.7868834
  43.0686951  10.6327784  38.9528322  72.4183655  40.5192089  33.3002877
  73.0993795  41.1846972  33.2024074  72.7665091  39.7516966  32.8464675
   5.3693020  41.2199402  32.1069264   4.6406800  41.1636353  32.7251267
   5.3754348  42.1351719  31.8266654  55.7622719   6.1231858  59.1273832
  54.8109198   6.0581183  59.0441275  56.0488605   6.5131640  58.3015442
  16.9613254  53.2970858  20.0042677  17.2449839  53.2158661  20.9148574
  16.0837090  52.9151583  19.9918175  12.2256732  52.4569130  26.3941574
  12.8748238  52.5955772  27.0838022  12.3124158  53.2224607  25.8261442
  29.1117764  70.7016802  11.9407511  29.2018437  71.0454082  11.0519481
  28.7522721  71.4318132  12.4446297  38.6413598   9.1322440  43.3471584
  38.0740857   8.5006875  43.7893915  38.1458163   9.3979245  42.5725079
  66.6986370  64.6622801  39.5881963  67.2165775  63.8606691  39.5147681
  65.9729528  64.5353746  38.9770460  33.1012559  62.6427603  30.9081721
  33.6551309  62.1445704  31.5092254  32.2081852  62.3830271  31.1344290
  23.8778329  52.4728346  21.4060211  24.4249535  52.0520782  22.0692372
  24.4983244  52.7907753  20.7501721  31.2422323  75.5716372  25.1446438
  31.3376760  75.0424242  24.3527746  32.0639086  76.0585594  25.2077818
  31.0579896  10.7183540  36.1678529  31.1142635  10.2804399  35.3185606
  30.7745242  11.6086662  35.9599495  69.2163324  66.5281057  40.0635576
  68.5017157  65.8922148  40.0290203  69.8605204  66.1987400  39.4368410
  68.9082575   2.5816888  62.0876789  69.7682905   2.9984671  62.0340633
  69.0037298   1.9231077  62.7757120  68.8657951  31.9747138  20.8486366
  68.2267666  32.6248670  21.1404800  69.1886091  31.5765142  21.6570044
  78.3596373  62.3958778  10.0470507  78.2410955  63.2785940   9.6963376
  77.8282547  61.8388033   9.4782531  70.8397913  40.1160145  22.2933388
  71.2783766  39.8169208  23.0898404  69.9702978  40.3884506  22.5865841
  69.1012526  70.6718779  13.9167559  69.9122620  70.1634884  13.9225042
  68.9213085  70.8252907  12.9892230  65.3870201  33.3184075  27.9588103
  64.9337816  34.0933251  28.2909441  64.7588634  32.9106736  27.3626542
  64.2012930  11.8094254  18.1985819  64.0407372  12.5228620  17.5809538
  64.3854332  11.0504329  17.6451790   3.9016572  48.8412380  28.1309462
   4.1001898  49.6453953  27.6512122   4.2781371  48.9814949  28.9997506
  32.2998881  43.3418703  10.5005479  32.2113633  43.9290428   9.7497988
  32.9518509  42.6974535  10.2250397  52.0462942  25.2927375  60.3400850
  51.8515968  24.5490646  60.9104109  51.6813326  26.0489678  60.7995939
  44.7732592  75.2422810  64.1613436  45.1140404  75.6642818  64.9500275
  44.0371275  75.7927227  63.8942099  25.2336097  63.8078165  62.6707554
  25.6350780  62.9943752  62.9763174  25.0742912  64.3109894  63.4692955
   9.9050802  71.3800764  42.8823566  10.0081289  70.8196688  42.1132326
  10.8004713  71.5639162  43.1664562   6.0073316  41.4988041  37.3701000
   5.6709754  41.7854595  38.2191730   6.8807214  41.1570358  37.5614595
   3.6232749  60.5129194  34.8365283   3.1659201  60.0488329  35.5377269
   2.9820666  60.5682945  34.1279960  73.5858440  33.4214926  20.6116414
  73.2497263  34.2504668  20.2709651  74.2082644  33.6770868  21.2924433
  75.3209257  25.6775212   6.1055398  75.0490475  25.4065228   6.9823939
  75.8269691  26.4773989   6.2481934  80.5768013  36.6009450   6.7668974
  79.9417210  37.2148252   7.1357524  80.2097225  36.3585258   5.9167719
  78.2756042  27.8001547   5.0771540  78.0812740  27.4767017   4.1974694
  79.1431284  28.1972694   5.0001115  10.1100194  51.5336561  24.7818518
  10.8547616  51.5313244  25.3831720  10.4743350  51.2360430  23.9482260
  64.5229578  14.5481908  16.7835259  63.9998055  14.9341691  17.4860668
  63.9157343  14.4705558  16.0476708  54.0779352  21.8007207  63.1436539
  53.8880539  22.2084403  63.9886045  54.1574001  22.5356531  62.5355482
  17.5311422  38.9231348  12.9997265  17.4906993  39.8657703  13.1610763
  18.4285986  38.6795878  13.2266402  66.3679314  25.9535861   2.5744390
  65.6458664  25.5767417   2.0716025  67.0014048  25.2405381   2.6551032
  64.7143555  62.5744772  14.7885787  64.5845842  62.0021963  15.5448127
  65.4953861  63.0838203  15.0048852   7.9753536  57.6010609  27.6725101
   7.1971160  58.0002832  28.0613542   7.8686213  56.6633129  27.8320765
  22.4503422   4.0814722  21.6976976  23.0534816   3.8004956  22.3858166
  22.9929137   4.1353846  20.9109712  21.7659473  47.0627785   2.8070280
  22.5097251  47.1472740   3.4035912  21.4381886  46.1760283   2.9569629
  10.9660125  49.4084597  10.8154166  11.2850761  50.3030109  10.6962132
  10.2042043  49.3471003  10.2391231   1.1408898  39.9601221  12.9420340
   0.5459233  40.7001591  12.8212476   0.9731288  39.3926525  12.1896601
  81.6772842  46.9342661   8.9056200  82.0544624  46.2337732   9.4378591
  81.1991787  46.4779997   8.2131827  74.3106031  44.3433142   8.9957160
  73.5763741  44.8450851   8.6416489  74.3289948  44.5694971   9.9256271
  78.1867981  51.0401154  10.5722094  78.6336517  51.4117289  11.3327742
  78.5632086  50.1651859  10.4771149  12.5932026  57.6990557  12.4889421
  11.7706370  57.3444128  12.1515310  12.3492908  58.5368252  12.8824878
  73.9230013  57.4294758  20.5832958  74.2290354  58.3342123  20.5198503
  74.3393469  56.9835186  19.8457241  80.6156921  63.4133863  12.0305622
  81.3000488  62.7511692  11.9338405  79.9888849  63.2133675  11.3353372
   0.9870037  58.0242395  21.7367840   0.7255599  57.4536610  22.4595022
   1.7937265  58.4406519  22.0401478  17.4628043   4.8249117  26.2091255
  18.3774948   4.6864575  25.9633493  16.9742930   4.1958106  25.6782579
  73.9557648  70.8551025  29.5439696  73.0853319  70.6908512  29.9067450
  74.0943193  70.1414204  28.9213228  65.5007362  46.5899944   8.7046236
  65.3626919  47.5017691   8.4480250  65.3412914  46.5800142   9.6483976
  21.7954183   1.6098353  10.2160776  22.3566556   2.0233761  10.8719969
  22.0703077   1.9990890   9.3859279  25.5440640  40.7314968   1.7707074
  26.2010956  41.2968540   2.1768060  25.0532746  41.3132763   1.1902878
  15.8370101  33.7231016  20.1471066  16.7797339  33.8887525  20.1551127
  15.6819963  33.2611156  19.3232298  10.8651221  57.3266220  24.0157318
  11.7027485  57.7898216  24.0078712  10.2257049  57.9922676  24.2693043
  22.0011687  34.3907309   8.3672428  22.5056386  33.9143848   9.0266627
  21.2959123  33.7904119   8.1254560  15.5929852   2.0163462  35.2815962
  15.0883079   2.7914014  35.5282187  15.8245301   2.1631378  34.3644977
   9.6212614  50.2937555   2.1660568  10.4470563  50.4753780   2.6147297
   8.9488620  50.6414461   2.7519080  15.2193665   0.4914600  15.9351969
  15.8845019  -0.1946467  15.9907341  15.6044363   1.1523229  15.3596866
   4.3628794  57.0974541  11.2501657   4.2384407  56.9641066  10.3105044
   4.9288976  56.3748884  11.5217316   5.7009888  57.7994633  45.7115889
   5.4169744  58.2852936  44.9372911   5.8669943  58.4740639  46.3700628
   8.3297986  54.4027996  13.6626852   8.4309310  53.7435675  14.3492854
   8.8462859  55.1483917  13.9685726  20.9741545  61.1161757  24.2823839
  21.9278145  61.1783314  24.2285085  20.8133698  60.2903461  24.7388816
  70.9503412  57.5168467  28.9294386  71.8299484  57.8779078  28.8191843
  70.7565212  57.0979977  28.0908513  33.9226794  26.2334323  60.9405565
  34.2671561  25.3414583  60.9847164  33.2657647  26.2023282  60.2450514
  80.7198906  67.0146704  15.3791094  80.2616024  66.5276098  16.0639310
  81.0138035  67.8165579  15.8113432  10.6260765  37.3201370  36.0204029
   9.7167432  37.4395084  36.2944388  10.6569636  37.6747060  35.1318336
  80.6184387  54.2649269   3.5472783  81.0214329  54.6182823   2.7542046
  80.0820065  53.5347891   3.2384568  47.6732206   2.3354019   6.6204035
  46.8801975   1.9774657   6.2213707  48.3866358   2.0018291   6.0763460
   0.9356350  33.9281845   9.4081348   1.7785831  33.8700151   9.8578978
   0.4834420  34.6531248   9.8396623  63.2904291  63.6086416  23.3884406
  63.6920547  64.4490337  23.1678414  63.6387539  62.9986811  22.7381682
   4.3568200  30.7093763   3.9418674   3.5798067  30.5391431   4.4743174
   4.1614980  31.5294242   3.4884351  24.7397423  69.3321562  59.2119980
  24.7561669  68.6552906  58.5353708  25.4896760  69.8914719  59.0095186
  10.0402331  32.7804232  15.7081473   9.9591154  33.7020540  15.9536088
   9.6370089  32.7269506  14.8416698  57.9183626   4.6639678  23.6381984
  58.0032015   4.4613674  22.7065396  58.4437895   3.9952821  24.0775371
  28.0024433  15.7120633  31.4840508  27.4265432  15.9580135  30.7601166
  28.4371805  14.9139130  31.1837316  69.8308897  70.5123329   5.7822639
  70.2769279  71.2422228   5.3526878  70.2171516  69.7302198   5.3881425
   1.8613301  50.1681662  34.4217491   1.7055421  49.5965385  33.6699486
   1.0411095  50.6494045  34.5307589   8.3193630  37.2206569   4.8115122
   8.1208813  36.3424277   5.1363945   8.0908769  37.8017330   5.5370301
  18.5781085  54.4589090  14.9219918  18.4436572  55.0357199  14.1700327
  18.8067448  55.0499439  15.6393695  29.9267864  75.2713490   9.2311811
  29.1753864  75.8639240   9.2532289  29.5914698  74.4745636   8.8201797
   3.3650109  54.9758863  45.0507736   2.9020649  55.7536411  45.3622389
   2.8990448  54.2427588  45.4528046  63.2602119  58.7730694  17.4792659
  63.2957268  58.2193661  16.6992748  63.0027676  58.1783009  18.1836843
  16.1921784  77.3690450   4.1632161  16.6308162  77.0686385   3.3672357
  15.2781817  77.1103837   4.0451854  79.4224834  61.8562031  25.0635958
  78.6870575  62.4671268  25.1099563  79.8370075  62.0438433  24.2214584
  24.6331406  65.6163311  35.8390164  23.8021064  66.0540247  36.0235238
  24.4269919  64.9958229  35.1399422   0.8086723  58.8665438  34.9409342
   0.2996935  58.8607693  35.7515740   1.3284299  58.0636406  34.9787378
  60.3874969  59.1684341  22.6056910  60.9726954  59.6572161  22.0270133
  59.6288443  58.9615345  22.0599151   8.5317940  71.7940474  28.8701773
   9.0286756  72.1170425  28.1185031   9.1869491  71.6777182  29.5582700
  20.4432487  56.8468761  29.9667573  21.2676787  57.2658253  30.2137971
  20.4092908  56.9284868  29.0136456  79.9060297  59.4200659   8.6565191
  78.9934158  59.1629028   8.5252470  80.4028511  58.6111641   8.5337019
  26.0123229  72.0579720  25.4542303  25.5008483  72.5122118  24.7846818
  26.9236517  72.2196817  25.2101779  81.3809586  61.9918394  43.5836458
  80.8711338  62.6730299  43.1451321  80.7264233  61.3695955  43.9008474
  11.1005950  60.6857300   9.9071747  10.2519202  60.2665234  10.0494659
  11.1514676  61.3596916  10.5849791   4.0652791  66.5683937  24.8349833
   4.3470222  65.6875896  24.5879316   4.1895351  67.0906973  24.0425229
  15.8098996  69.7107935   7.3783481  16.1849236  70.3466082   6.7689800
  15.8577061  68.8758135   6.9127780  78.9011955  38.6109662   7.5639439
  78.6098528  39.2942834   8.1676269  78.5894299  38.9001513   6.7063850
  48.4163761   1.1335490   9.4421691  48.1519222   1.9782963   9.0778935
  47.7634382   0.9488764  10.1172984  28.1117105   1.5038301  20.5164814
  28.3676791   2.0718905  19.7898328  28.9406395   1.2140914  20.8974791
  45.0652933  66.0123348  63.8717842  45.8985996  65.6878424  64.2131615
  44.4872427  65.2495241  63.8861561  28.8578224  53.6781168  20.2502990
  28.6946750  54.1144609  19.4141066  29.7589111  53.9134121  20.4714465
   2.8070328  48.5093641   7.8978103   2.6973590  47.6099300   8.2063806
   1.9216916  48.8732290   7.9007608   2.2041398  62.9072618  14.9220800
   3.0444339  63.3606195  14.9899483   1.7053065  63.2127237  15.6797683
  45.1367188   0.9535483  25.4913211  44.1930866   1.0032542  25.6440353
  45.3230906   1.6855891  24.9034333  16.5466452  69.7092152  24.1091657
  16.9224894  69.5904160  23.2368922  16.8369734  70.5806780  24.3784046
   1.7519870  70.5987835   4.3782085   1.7678189  71.5497160   4.4864115
   1.7465936  70.2560902   5.2719438  31.9668579  59.6161366  11.9213843
  31.5875411  59.0291643  11.2673068  31.2268257  60.1365471  12.2340393
   0.8716828  53.8140249  11.1191106   0.9314461  54.6230507  11.6271830
   1.7069200  53.3724403  11.2727809  18.7365997   8.3806807  13.9828861
  19.3798614   7.6927400  13.8120508  19.2355788   9.0727550  14.4168043
  25.2243567  49.4428492  11.0018516  24.9489307  49.4191456  11.9182634
  26.1225843  49.1122532  11.0130906  16.4841938  35.4389954   8.0675828
  17.3973870  35.1695657   8.1661731  16.2516296  35.1758289   7.1771401
  69.2639160  34.0904069  32.5445342  69.1369677  34.7386980  31.8518353
  69.0432262  34.5556927  33.3514023  50.8617973  67.8155088  47.1562719
  49.9842310  68.1287766  47.3753071  51.0751247  68.2563210  46.3338327
  70.8853149  31.6024470  18.4499633  70.5473709  30.9172463  19.0266109
  70.4883242  32.4091744  18.7783217  18.1537342  62.0901728  10.7978523
  17.5407183  62.6663208  10.3412330  17.6156521  61.6305971  11.4424360
  16.1410940  62.8099060  18.1542277  16.2243140  63.7476492  17.9811931
  15.4122365  62.7439499  18.7711954  77.5723267  58.2199097  27.6206923
  78.3473587  58.6559057  27.2664762  77.1062946  57.8962135  26.8498063
  20.2431703  51.6611147  24.9992704  19.4270360  51.2120485  24.7790551
  20.7475448  51.0135221  25.4916763  17.3728180  58.1070328  33.9404988
  18.0769992  57.8761959  33.3346319  17.8215194  58.4885216  34.6950626
  23.0151343  48.8201380  29.5233274  23.6766315  48.4863520  30.1293325
  23.3450079  48.5857964  28.6558604  79.9933147  72.8424025  55.8345509
  80.4658127  72.8877497  55.0033331  80.5628395  72.3273039  56.4059973
  76.5570879  43.3091688  31.2115192  75.9796047  44.0711069  31.1646581
  76.5532637  42.9507875  30.3239489  14.9310970  42.9478788   8.0988628
  15.7801104  42.6280594   7.7937025  14.9088335  43.8653040   7.8267068
  33.4578729  61.5810156  13.2670963  33.1408000  60.7158899  13.0077624
  32.9902649  61.7737961  14.0797520   2.7430344  57.7259302  30.6467724
   3.3925599  58.0618238  30.0290942   2.1535887  57.1961498  30.1100063
  74.0789175  53.7220526   0.3033028  73.4012985  53.7134886  -0.3727083
  74.6596098  52.9979038   0.0695457  76.4766312  33.5476136  14.6906078
  75.8947754  32.9199290  15.1191938  76.9400644  33.0324006  14.0302896
  11.6636372  40.4309797  41.0963202  12.3463917  41.0906315  40.9740973
  11.7791939  40.1308727  41.9978809  81.9840527  27.3321724  54.0282011
  81.5899086  27.3126769  54.9002647  81.2611580  27.1305275  53.4340668
   5.3781283  60.2071476  39.0039635   5.6563693  59.4061375  39.4480348
   4.8636150  59.9006701  38.2572508  37.3743963  62.9272604  55.2372789
  37.3358822  62.2933817  54.5210743  36.7577410  63.6137629  54.9829531
  59.7658110  33.0803061  29.2939568  60.4444790  33.3883262  29.8945975
  59.5719290  33.8383532  28.7425900   6.5628284  60.9562302  12.7438140
   6.7344683  60.0969172  13.1289828   6.8859929  60.8849859  11.8456364
  74.0953398  60.3576899  11.1813390  74.2194653  59.5123100  10.7498848
  73.8032484  60.9427500  10.4823232  11.9453943  50.5471182  30.7253742
  12.7280951  50.0583553  30.9797883  11.3589501  49.8858070  30.3579712
  65.6804752  69.4756222  37.1611810  66.1323690  69.7123528  37.9711103
  65.4729557  70.3141451  36.7488146   8.6995447  30.0362945   3.1323367
   9.4283891  29.5017052   3.4473512   8.4544730  29.6386862   2.2968253
  79.4735765  44.1190052  15.9883511  79.9820185  44.2441463  15.1870668
  80.1124668  43.8129473  16.6320705   6.0744923  55.8104801   6.3774610
   5.7273692  54.9823570   6.0458732   6.7784107  55.5537510   6.9731301
   3.2661095  45.1342154  34.3573880   3.8505739  44.5773792  34.8717451
   3.8061646  45.8850908  34.1108918  74.2346668  42.4653816  32.7468061
  74.8716879  42.4643183  32.0323610  73.9294481  43.3713770  32.7942109
  24.4583726  41.1839485  30.6184387  24.9399376  40.3578043  30.6610346
  24.1789913  41.3450670  31.5196705  77.3026371  59.1293383   9.4990945
  76.9240856  60.0057936   9.4301414  76.6890621  58.5656786   9.0278816
   1.3378954  24.8515654  37.8430414   1.1987379  24.4247055  36.9976687
   0.4876306  24.8009515  38.2797575  64.3155003   1.8397719  63.4144211
  64.5277548   0.9108977  63.5059214  64.9089956   2.1550636  62.7328205
   6.8531072  52.7748871   1.7087953   7.0295674  53.6930513   1.5036879
   7.5208682  52.5408602   2.3534343  80.3399086  50.5252600  15.6027448
  79.6326208  50.6386232  16.2376595  81.1307907  50.7821512  16.0768247
   8.3959091  67.3341894   9.6154767   7.5384212  67.0885277   9.2682034
   8.6776578  68.0638885   9.0637672  30.6163692  28.9039969   3.8820815
  30.4228926  27.9892850   3.6769024  29.7615099  29.3346190   3.8857856
  62.5005817   2.4431708  22.5197005  62.8132153   3.1917867  22.0116973
  62.2007608   2.8226686  23.3457279  30.5712748  12.6002991   6.0514081
  31.1642361  13.3426905   6.1675280  30.3233457  12.3502886   6.9414967
  73.0937290   5.0519556  54.6282673  72.5435257   5.7908463  54.3683577
  73.8236809   5.0674838  54.0092707   2.5313282  34.6349525  64.6818638
   3.0118668  35.3681540  65.0662184   2.2801092  34.0943313  65.4307604
   5.6747365  62.3024797   1.3213466   5.9732437  62.7675724   2.1028920
   4.9872515  62.8608608   0.9582946  52.2289371  18.6423945  11.1111367
  52.8219652  19.3916631  11.1671865  51.9238043  18.5107684  12.0088005
   6.6627818   7.8429747  57.0141172   7.3270082   7.7780640  57.7002811
   6.7096078   8.7529051  56.7207479  73.1780577  42.0224285  66.7961168
  73.3820629  42.8521538  66.3646412  72.6575708  41.5400457  66.1537504
  10.9366453  64.9417019   0.4459125  11.5965676  65.2552509   1.0643164
  10.1500237  65.4431725   0.6603582  10.1672435  51.0286808  17.7586067
  10.7888794  51.5039349  17.2073019  10.5261493  51.1026192  18.6428869
  46.2090158   3.1096891  18.2928216  46.3053370   2.4079494  17.6489937
  46.2011147   3.9129177  17.7722514   1.5479900  70.3423786  12.5894177
   1.2991896  70.9569740  13.2797813   0.8439554  69.6939278  12.5808895
  51.2356424   7.1158338  42.6031113  51.5588856   6.9470876  43.4881401
  50.3056240   6.8925679  42.6411772  72.2916651  53.7429953  53.1398821
  72.0692635  53.8033199  52.2108364  73.1890392  54.0717983  53.1931829
  68.7038088  40.8533859  65.9990454  68.4773731  41.7753506  66.1212540
  69.6371651  40.8620739  65.7869005  14.2985249  68.8045931  21.3913274
  13.7806594  69.2651701  20.7310867  15.1400805  69.2606497  21.3966250
  11.5760064  52.4954605   3.7013471  11.2746954  53.3922815   3.8467732
  12.4576199  52.5943136   3.3418798  13.0106688  75.0370884  43.0936146
  13.3741343  74.3701458  42.5111103  13.7742293  75.4186249  43.5267878
  71.0063505   2.9507449   7.2450823  70.4519176   2.7637553   8.0026251
  70.7689714   2.2812672   6.6034579  16.6080523  58.0910349   2.0069036
  17.0879924  57.6182127   1.3269541  15.8145106  57.5735569   2.1437989
  40.8591747  72.8442240  24.1037869  40.5139685  72.1524763  23.5393834
  41.7295885  73.0290937  23.7510324  11.3036942  68.8981152  11.0403502
  11.4788604  69.0203476  10.1072872  12.0805371  69.2467976  11.4775753
  33.4324932  65.8090305  31.3820195  33.4275770  64.8670912  31.2118602
  34.3604612  66.0399818  31.4240932  23.9944005  44.1880417   7.1721870
  24.0859413  43.4390211   7.7610999  23.0692649  44.4267464   7.2302955
  22.9220223  64.6824741   4.0717369  23.3317232  63.8571835   3.8123521
  23.2688355  65.3264856   3.4543246  28.2763100  62.6694345  18.4959245
  28.8955474  62.8181839  19.2105234  28.1131434  61.7263937  18.5127974
  53.6379957   3.7861535  36.4566064  53.5211468   4.7351435  36.5012813
  53.4825611   3.5686976  35.5374861  73.6063194   6.3802433  15.5518365
  74.0761232   5.8782113  14.8858953  74.1230106   6.2629735  16.3490248
  22.3203611  76.2669086  18.5753167  22.9630971  76.3356686  19.2812848
  21.4737630  76.2608004  19.0219355   7.5523502  18.6154830  61.1909056
   7.7266574  17.7626693  61.5891027   7.0527983  19.0918422  61.8540525
  15.8204806  68.4188700   1.5756954  16.6335797  68.9200974   1.5134633
  16.1000490  67.5039673   1.5436248  43.8696861   2.6966539   8.0287379
  43.5296535   2.7036807   8.9234781  43.1100988   2.8981787   7.4822533
  40.2774715   9.5518392   1.2264834  40.8315468   9.5146519   0.4468386
  39.3845820   9.5930731   0.8840165  20.4565048  65.6617451   3.2452989
  21.1655617  66.0057449   2.7020338  20.8933735  65.0860786   3.8729820
  24.5074892  65.6383419  23.3159065  24.0299177  66.4080620  23.6252403
  25.1781559  65.9915209  22.7313566   7.9236853  54.6119213   8.2002789
   8.1556720  54.0180445   8.9142299   7.6087976  55.4022837   8.6389178
  31.7644668  55.3321981  23.8198972  32.1612477  54.5270443  24.1523433
  32.4114442  55.6830788  23.2079029  63.6755323   0.8278151   3.8953006
  63.2307959   0.5532760   4.6972179  62.9856205   0.8428966   3.2319558
  29.9082208  76.8022108   2.7229670  29.4055653  77.4712944   2.2583140
  29.3079114  76.4731932   3.3920032  72.9396248  37.6173472  52.1049881
  72.1629238  38.0150390  52.4984407  73.6408663  37.7884459  52.7336502
  35.5535173   9.2285663   7.5562167  35.1963902   9.7249651   8.2926142
  36.1396742   8.5888147   7.9604059  33.8105798  60.1123381  29.1655684
  34.1818714  60.7688856  29.7549057  34.0081906  59.2749166  29.5849824
  14.9519074  54.5941210   1.2345940  14.3365097  55.2307272   0.8709310
  14.4499457  54.1324329   1.9062409  78.8625240  50.7930470  17.9741812
  79.0228224  51.6726685  18.3159506  79.5235968  50.2467442  18.3993447
   9.6970117  46.4266634  36.5573478  10.6463468  46.3382912  36.4725876
   9.4147813  45.6045580  36.9582510  66.6233587  10.4796493  16.4131880
  66.0765457  10.3340316  15.6411612  67.4984741  10.2016687  16.1427522
  20.1763463  59.1609240  19.8739660  20.9702277  58.8531971  19.4366002
  19.4643414  58.7007475  19.4295347  73.5307980  51.3216782  55.8315229
  73.6126375  50.9458113  54.9550200  72.5978756  51.5154314  55.9228897
   4.9551570  58.3688498  18.0124593   4.2417735  58.3904648  18.6503065
   4.7235826  59.0407705  17.3712647  39.1482091   6.9069928   7.8652692
  39.9435854   7.3631054   8.1401706  38.4705710   7.2271663   8.4606898
  11.5261698   1.5116431  63.8218212  10.6273293   1.5449534  64.1492510
  11.8907642   0.7132366  64.2037249  37.3438215  69.7828007  30.5771112
  37.5006413  70.4430580  31.2521648  38.1723833  69.3083668  30.5090475
  42.3200274  25.3245902  15.4484284  41.6343737  25.8504605  15.0366366
  42.1787167  24.4400835  15.1109231  35.1280954   5.8104507   0.2272501
  34.3700578   6.3740913   0.3819265  35.2353551   5.3237001   1.0444393
  10.5782712  42.7610111  28.1448197  11.3925719  43.0319262  27.7208471
  10.8616471  42.2691154  28.9155126  75.1204062  26.6375208  57.7284813
  74.3027878  27.0898628  57.9361343  75.6504107  27.2953248  57.2783470
  23.3693337  75.5643988  29.9271822  23.5571837  75.9794998  29.0853763
  23.8931274  76.0567617  30.5592012   6.3156253  60.4084158  26.2483311
   6.4102399  59.6300840  25.6992555   5.7732743  61.0027933  25.7298708
  32.2618937  70.1168203  16.7747736  31.7215538  70.5423737  17.4404848
  31.7283273  69.3849134  16.4651752  10.6434095  62.3431730  19.8197210
  11.2973082  61.6809797  20.0436592  10.1143301  62.4349070  20.6121182
  32.0319867  55.6565809  15.9652376  31.6629434  56.4932346  15.6823123
  32.3409057  55.2457619  15.1577544   2.5558379  61.1189938   4.7933337
   2.1918494  61.1630774   3.9091390   3.4234968  60.7321262   4.6761519
  23.9612103  55.3880644  31.3524103  24.5781112  54.7328424  31.6785264
  23.2220769  54.8775291  31.0218477  33.7946725  55.5779934  30.4602218
  34.7271299  55.6463432  30.2550745  33.4210539  55.0995398  29.7201371
  16.8784618  76.0005999  21.3180423  17.5716221  76.3755798  20.7747626
  16.3357031  75.5045748  20.7051778  28.0819535  68.5459423  12.7960205
  28.5627031  67.8141069  12.4093318  28.6687016  69.2959642  12.6989174
  16.4578509  45.8042002  12.5405490  17.1429288  46.3219786  12.9634023
  16.9272017  45.2487040  11.9181621   7.9500437  47.5645018  16.5108669
   7.2806489  46.9623947  16.1858845   8.6437386  46.9947243  16.8430960
  15.4206645  74.0089178  32.3652077  16.2786996  74.2645454  32.0265889
  15.0112188  74.8334932  32.6272321  10.4073501  72.7051163  27.2086954
  10.0176442  72.4952030  26.3599920  11.0926712  73.3420801  27.0065975
  27.0140791  65.8935595  40.0826073  26.2454057  66.4133501  40.3175402
  27.7323341  66.5258074  40.0579596  20.5032468  72.4866772   1.5900493
  21.3221550  72.9760265   1.6684949  20.7355332  71.7113781   1.0789800
  33.8872027  52.5198603  31.2724924  34.4315696  53.1755352  31.7083669
  33.0149579  52.6461029  31.6459632   0.1453944  39.3315911   3.0491808
   0.2030345  40.1347828   3.5666719  -0.2134541  39.6139312   2.2079074
  66.4961624  64.7530746  10.7503569  66.3318872  64.1350412  10.0381196
  66.8459082  64.2137241  11.4595902  62.0581341   5.4504979  31.5500832
  61.1094475   5.3865695  31.6602731  62.4185562   4.9509656  32.2827458
  63.0887699  34.0562010  62.6589060  62.7204275  33.5594511  63.3895159
  63.9937019  34.2288780  62.9187441  75.8619881  71.2415218  16.3828170
  75.1613808  71.1621428  17.0301831  76.6414976  71.4497519  16.8978238
  26.5925932  55.1220083  13.9943576  26.9256568  54.6256351  13.2467532
  27.2230244  54.9525309  14.6944046  69.5179939  13.1520700  56.4741707
  69.3400002  13.4289455  55.5753469  68.8383007  12.5055826  56.6646957
  67.0939159  46.9912910  51.6985607  67.9915380  47.3116589  51.6098595
  67.1147871  46.4322281  52.4752522  31.0756660  74.5209503  11.7972624
  31.6759157  74.1127443  11.1733222  30.2075624  74.3880129  11.4165330
  41.6159344   1.9235158  32.7342248  42.3444700   2.4303117  33.0928612
  40.8672619   2.1598805  33.2818151  14.8312724  66.8168926  10.0442302
  14.0370965  67.1036196  10.4951227  15.5467534  67.1942425  10.5560184
  51.2181044   8.3237088  15.3417695  50.4152822   8.1537050  15.8345234
  51.4078426   9.2477089  15.5044222  37.4771023  70.7731485  13.1894875
  38.0570841  70.2401161  12.6456797  38.0479908  71.4460039  13.5604095
  11.6319764  63.4851837  17.4891722  11.2652230  63.2357740  18.3374155
  11.4373851  64.4189882  17.4093294  20.0329375  48.4694529  29.4635320
  20.9877992  48.5335016  29.4443274  19.8417306  47.6208115  29.0641809
  16.0150051  74.3463564  26.1558962  15.6364322  74.5898008  25.3111172
  16.3478923  73.4588957  26.0223603   0.1968157  20.6625676  60.6873751
   0.5539454  20.0022554  61.2812424   0.2390885  21.4795709  61.1843157
  44.9297094   5.6929564  22.6355529  44.3168402   6.3701922  22.9218674
  44.5479965   5.3507423  21.8272090  28.3848572  59.3000984   0.1512074
  27.6182747  59.0991545  -0.3856404  28.6140347  58.4668922   0.5628813
  30.9654784  56.8220282  18.5225987  31.2473655  57.5658560  19.0550423
  31.7722869  56.4897823  18.1290209  34.0417099  68.8276529  19.0072560
  33.9464378  67.8752041  19.0069890  33.5887098  69.1138983  18.2141066
  75.6433392  46.1810827  56.8438339  75.6598902  47.1364975  56.7877960
  75.1966810  45.9973335  57.6702499  24.6547127  75.6001949   4.0421444
  23.7326384  75.6900549   4.2828381  25.0566339  75.1627302   4.7926879
  60.3967714   2.1956456  27.5725937  59.9674892   2.1545397  28.4271431
  60.8097029   1.3381502  27.4704981  80.1461029  64.3064308  33.9975595
  80.1210690  64.3926716  34.9505377  80.9472084  64.7608709  33.7369061
  20.5770779  57.8223991  22.9141879  19.7894931  58.1614780  23.3395863
  20.2529311  57.3714638  22.1345592  81.1276150  64.0282440  15.1775801
  80.5885792  64.1120291  15.9641230  81.9137192  64.5392036  15.3704095
  26.2855697  46.5784931  14.2292917  26.5041471  45.6613922  14.0638018
  26.6375899  47.0487547  13.4735358  23.7836528  56.0327673   4.4370699
  23.8564444  55.2031231   3.9652386  22.8691912  56.0693741   4.7175205
  27.2738123  44.7685814  16.6093671  27.7593017  43.9533520  16.7355776
  27.6773691  45.1710796  15.8403623  30.2684402  66.7367411  35.7070494
  30.6956339  66.7866611  36.5621781  30.9860253  66.8002558  35.0767565
  36.3362670  57.6202154  36.6595697  36.4983916  56.8275976  37.1711373
  36.9912100  57.5932264  35.9620357  43.4228659  62.0966816  18.7110519
  42.9773426  61.9784260  19.5499551  43.1552505  61.3403082  18.1890213
  48.3928061   6.3013029  12.3336124  47.8366375   5.9120840  13.0084610
  48.5657024   5.5846673  11.7230630  56.8430519   3.2494202   5.5617166
  56.1260319   3.4601432   6.1598051  56.7800188   3.9086369   4.8705643
  46.9150257  63.1041288  34.1819763  46.0482788  63.4729481  34.0118170
  46.7506027  62.3680067  34.7713137  60.1024389   8.0983752   2.7291250
  60.3416348   7.8252751   1.8434419  60.4085207   9.0031606   2.7916488
  16.3109541  11.7272592  41.6599035  16.5031528  12.3813009  40.9879494
  15.9857142  10.9708238  41.1717892  25.3630209  13.0668366  25.2258778
  24.5646477  13.2313478  24.7241116  25.0713682  13.0370510  26.1370778
   0.5218853  44.2468071   9.8683554   1.0943268  44.6712732  10.5073953
   0.6509510  43.3099508  10.0162649  55.5997419   8.8009536  25.0510478
  55.5193043   7.9645044  24.5926666  55.7412672   9.4427836  24.3551636
  65.1015902  20.5364585   3.9450479  65.6005383  19.9544919   3.3718130
  65.4654694  20.3834391   4.8170626  48.7621498  13.4812140  19.2649591
  49.2474842  13.8812399  19.9865294  49.0357590  12.5639760  19.2717052
  70.6097651  34.6660018  66.5246248  70.4046011  35.3214502  65.8578968
  71.4635849  34.9312305  66.8664932  57.1428299  73.4311342  24.1364765
  57.5183916  73.0982494  24.9515676  56.7490482  74.2692232  24.3789196
  71.4079189  67.0704937  38.0244851  71.4396572  67.9914427  38.2834888
  72.3149157  66.8499088  37.8125191   4.5250803  39.3675876  66.7981100
   4.5718548  39.9201059  66.0178757   4.2582256  39.9635673  67.4979877
  48.9915800  65.0389242  22.8887081  49.7196245  64.7313070  22.3487473
  48.4470463  64.2629290  23.0211711  28.0648208  66.0050297  25.4765105
  27.3891664  65.3310823  25.4022408  28.4550810  66.0501480  24.6036458
  63.2407427  20.8414507   6.7901444  62.7651787  21.1270404   6.0100758
  62.6425982  20.2348733   7.2266263  13.7565768  17.9772937  62.6117277
  14.1752970  18.8365126  62.5602579  13.7584341  17.7654827  63.5451984
  46.4817095  10.7413924   1.8537866  45.9663296  10.6081033   2.6493043
  46.9154882   9.9010503   1.7058213  57.4643850  72.1875477  26.6468620
  57.0649529  71.7814398  27.4161243  57.8145933  71.4529753  26.1428857
  66.3724518  60.9975004   5.0402004  65.6937933  60.3501511   5.2314860
  67.1003580  60.7580423   5.6138253  64.1336250   2.6796418  30.3326511
  64.1448593   3.1707773  31.1541677  64.1135263   3.3521542  29.6518016
  21.0247660  62.2419453  30.9817934  20.3194571  62.1134281  31.6160274
  20.6902218  61.8592167  30.1707268  73.0783176  37.3908591  64.9708700
  73.8761759  37.3699760  64.4424582  72.4071169  37.7286959  64.3779230
  18.4249902  14.7545481  64.8013687  19.2541957  14.3140936  64.6152210
  18.6405015  15.3937864  65.4804564  40.2978420  14.0511799   5.2600306
  40.1649046  13.1054425   5.1956832  40.9280586  14.2520845   4.5681518
  32.1598911  63.7681627   6.5561503  32.4154162  63.7362909   5.6342375
  31.4528823  63.1272554   6.6310251  25.3990245  62.3569727  15.1662219
  25.1092911  61.4744234  15.3972983  24.6756625  62.9241323  15.4332566
  10.3157413  35.4394794  55.8701468   9.4683146  35.8737111  55.7724571
  10.7787383  35.9623432  56.5247297  80.7279396   6.5470260   4.7581607
  81.6452694   6.4909393   4.4905841  80.2519512   6.0605294   4.0851170
  45.5561543  69.6791267  63.1683540  45.1486921  69.4431114  64.0017223
  46.4776230  69.8222542  63.3843231   0.0688824  73.0141878  62.5528955
   0.8142016  72.4205637  62.4615622   0.3107330  73.7834024  62.0371008
  17.1835744  59.3753529   4.2114905  17.0731950  58.9864635   3.3438444
  17.6406062  58.7042332   4.7183901  68.7510681  22.2657537  11.5973210
  68.8015032  21.7998552  10.7626784  69.5205116  21.9697690  12.0837188
   9.4024652  37.6443696   9.5878959   9.0440327  37.5478029  10.4701853
  10.2521908  37.2052693   9.6251929   8.7188494  46.0825062  19.4837868
   8.7170684  45.8232260  20.4051995   9.6443754  46.2004280  19.2699420
  11.2874997  52.5421381  44.2753935  11.1564100  53.3175421  44.8211002
  11.7316139  52.8714609  43.4940243  14.1319394  60.7126856  22.3670149
  15.0019777  61.1012125  22.4581814  13.7228251  60.8378315  23.2232833
  45.6438494  67.8947735  51.7478466  46.3299513  67.3332596  52.1086788
  46.1183023  68.6025620  51.3117743  15.7876575  25.9040260  25.6666636
  16.4244652  26.5716124  25.9216905  15.0462532  26.0426950  26.2560034
   8.5022223  27.7070832  14.3640983   8.2966119  26.9978952  14.9732029
   9.3094718  27.4262094  13.9331806  19.6333671  55.5093813  21.6177964
  20.5686116  55.4072475  21.4413881  19.3292964  54.6240950  21.8178916
  80.9059048  48.5565853   4.2856941  80.6535721  48.0544233   3.5108447
  80.4275131  48.1439400   5.0047886  64.9364662  44.5569134  20.4187441
  64.0395403  44.8846292  20.3527236  64.8423290  43.6046743  20.4435015
  31.7993879  68.1680918  66.3465214  31.1275196  68.8494682  66.3700342
  32.5920534  68.6023521  66.6616869   9.0910429  23.6998558  12.8486681
   8.6729872  23.4619761  13.6762393   9.8542523  23.1249428  12.7919281
  78.3859730  66.9030809   1.6254400  78.2762480  66.9395256   0.6752482
  79.2175913  66.4466476   1.7531803  18.7351894  31.7543268  12.6506066
  17.8426123  32.0242763  12.4345839  18.8061082  31.8950725  13.5947418
   1.8094492  32.1599531  16.6863751   1.4246769  31.9069934  17.5255370
   2.7533931  32.1569943  16.8450975  24.5766425  59.4880390  58.0081797
  25.1686263  59.6262836  58.7475538  23.9123869  58.8854265  58.3426189
   1.5718037  17.3981512   5.1035243   2.2500382  17.3200727   4.4326043
   1.5583947  18.3296883   5.3232729  55.7289600  70.2859735  63.4226990
  55.9786177  70.5561304  62.5390053  54.7721863  70.2635717  63.4049845
  21.8963456  51.4365482  29.3981099  21.9461870  50.4955864  29.5664382
  22.8068376  51.7073059  29.2800927  79.7603035  45.3482771  12.2149646
  79.8748827  44.5622969  11.6807938  78.8526535  45.6112528  12.0625246
  11.5888715  46.7329741   0.2196421  10.9835589  47.0551395   0.8875030
  11.9996572  47.5226879  -0.1322662  72.5085592  30.8775187  10.7172728
  71.7476845  31.4437890  10.5882740  73.0482006  31.3432717  11.3560963
  63.4899855  69.5949411  55.5789137  62.9899693  70.2069712  56.1189413
  64.2077398  70.1196384  55.2242947  58.1554174   5.3846061  64.2920876
  58.3051538   4.8491162  65.0712299  58.8486814   6.0441124  64.3178701
  27.0476222  42.9490137  31.2069321  26.9452643  42.9748821  30.2555728
  27.0377088  43.8681507  31.4739776  76.1140776  19.1745901  39.1768742
  76.4551735  19.1618586  40.0711441  75.5887699  18.3772528  39.1095209
  30.8890533  29.9319029  19.5560443  31.8359590  29.8103237  19.6254480
  30.7812238  30.5808759  18.8607454   8.0680245  27.8224778  67.0022440
   8.3494651  28.6157131  66.5463924   7.8053522  27.2245169  66.3024712
  51.1785793   5.8438778  52.4951506  51.7397404   6.3536811  53.0794716
  50.9330034   6.4577842  51.8030214   5.5611873  54.7597694  15.1745200
   5.1839054  55.5105495  15.6330180   6.2161320  54.4134092  15.7805824
  20.9297061  35.7319045  20.4015279  21.6055655  35.4537368  19.7834110
  21.4161611  36.1086178  21.1347961  32.8274274  49.6506596  21.0565424
  33.0565357  49.9901724  20.1914001  33.3204460  48.8336229  21.1314654
  80.4266834  41.0105371  61.9003201  80.8319759  41.8617201  62.0660067
  80.9718227  40.6138849  61.2208176   1.7587063   5.1136059  58.2006359
   2.2975123   5.9011424  58.1251001   1.3192999   5.2042204  59.0461779
  65.3656340  11.9879735  61.4636612  64.6300650  12.5978649  61.5202093
  65.0104380  11.1549318  61.7736769  41.7881012   6.8687117  14.1905034
  41.5447617   6.0971880  13.6788702  42.6665068   6.6726911  14.5164037
  78.8223314  47.2202015  33.1991100  78.9004564  46.3218164  32.8781271
  79.6396923  47.3776102  33.6717391  74.9814749  32.3390651  18.7234294
  74.4866323  32.6871824  19.4651687  74.5803356  32.7462506  17.9556274
  62.8639603  39.4314384   7.6810616  62.0688105  39.9570489   7.7688104
  63.3242083  39.5528889   8.5115153  22.1426773  58.3168411  12.0017231
  22.2283387  57.3886156  11.7842543  22.2882271  58.3557987  12.9469895
  18.3889842  54.4321728   7.4086189  18.0867147  53.5371304   7.2544730
  18.2622898  54.5694208   8.3474177   1.9837049  55.8799124  12.6990771
   2.7357829  56.1523485  12.1733499   1.8622471  56.5899897  13.3293724
   7.3812044  58.4926128  13.2299602   6.8527925  57.7544928  12.9263330
   8.0690932  58.0920792  13.7615752  27.6867771  26.6892743   2.7538317
  28.4844637  27.0305729   3.1581146  27.9943609  26.2100029   1.9844660
  77.4877644  46.9838190  19.2468977  77.0695114  46.2055159  19.6150649
  77.4629450  46.8439388  18.3002985   9.6608227   2.3930556  53.0809593
   9.1821933   1.5695360  52.9862928   8.9814711   3.0476913  53.2427168
  81.1114788  62.8145266   2.8353357  80.8735657  62.5420809   3.7215638
  82.0406151  62.5973749   2.7593210  63.6089897  11.7227638  43.9135265
  63.3456278  11.0450208  43.2910013  64.3701553  11.3537621  44.3615198
   8.7053388  18.9995182  20.8953023   8.7372202  18.1805921  21.3898468
   9.1267943  19.6411598  21.4670563  23.1995964  44.9160719  13.7329948
  23.8464093  44.7042847  14.4060576  22.6630735  45.6051731  14.1248035
  69.7900724  26.9303322  66.1174345  70.1001263  26.1367774  65.6811142
  69.4069242  27.4557352  65.4150248   9.0926027  39.7739792   3.6909428
  10.0199962  39.8439264   3.4644914   8.9247489  38.8322306   3.7250471
  58.3675098  69.4910812  64.5842934  57.4291039  69.6657991  64.5129061
  58.4731674  68.6049461  64.2381239  24.5114446  26.2295938  31.1903811
  24.1199470  25.9722495  30.3556752  24.1649675  27.1061325  31.3573074
  10.1542020  17.4723566  65.4934597  11.0812712  17.3639381  65.2812815
   9.9573493  16.7460203  66.0850000   8.9086246  63.6953640  13.7896085
   8.2418180  63.1051064  13.4386110   9.0921849  64.3026352  13.0728388
  34.4847655  39.0342379   7.9096580  35.3168273  38.5652757   7.9727441
  34.6533132  39.7378492   7.2829586  65.8333588  53.5036039   9.9418348
  66.1818123  53.9325809  10.7233655  65.0453329  54.0023088   9.7261012
  22.5422978  61.2320757   0.7889493  22.0127368  61.5109634   1.5359539
  22.6599598  62.0268965   0.2687125  15.2012563  55.5584335  11.3977861
  14.4907916  54.9667025  11.1501503  14.9138343  56.4188290  11.0922623
  60.7683325  12.3372078  63.8335657  60.7181025  12.8495145  64.6405649
  59.9941063  12.5988257  63.3352041  25.9702539  63.2620478  27.5332999
  25.8133268  63.7991476  26.7566872  26.2835121  62.4263716  27.1872592
   6.0594761  64.8737526  11.5001070   5.2179229  64.4181633  11.5215290
   5.8302116  65.8022833  11.5388405  41.1697054  55.9958839   8.4118271
  41.5889597  56.6335058   8.9896673  41.0493898  55.2196789   8.9588761
  17.2678006  34.7223377  35.8732486  16.3650715  34.4065356  35.8335018
  17.3298240  35.1644421  36.7199659  14.7836435  77.1488523  59.4986248
  14.7729254  77.4327517  60.4126930  14.3006659  76.3224363  59.4988203
  50.1079559   9.3772298  52.1377325  49.4754744   8.9729601  52.7316761
  49.5706654   9.8122573  51.4756870  58.8163185  71.2658978  57.3085165
  58.1829500  70.5948591  57.5630379  58.2996655  72.0686436  57.2384977
   0.5250062  51.3955450   8.8646793   0.1696314  51.5043306   9.7467828
   0.1589465  52.1267605   8.3671260  48.7059164  22.6193595  56.7139339
  48.0213070  23.1837869  57.0730448  48.2755804  22.1429110  56.0039759
   6.6046286   5.6727517  62.7999926   6.9051987   4.7858620  62.6017141
   7.2547114   6.2432468  62.3899221   7.0472169  65.5970764   5.6704491
   6.4969528  66.3445663   5.4365748   6.4878619  64.8336935   5.5269200
   4.8414412  53.6534691   9.2022187   4.1024160  53.2173157   8.7781352
   4.8600799  54.5272017   8.8117433  10.6261671  30.2815270   5.8062673
  11.4256561  30.2029395   5.2858120  10.3321600  29.3792319   5.9313786
  72.7297878  14.0487933  65.6351423  72.3390007  13.2191908  65.9095097
  73.5590792  14.0919495  66.1112213  77.1697044  50.1921892   8.1607312
  77.2004414  50.8122158   8.8893288  76.2358189  50.0472736   8.0087870
   7.0649642  25.5391741  30.9136295   6.7843670  26.1289406  30.2138638
   6.8719739  24.6629453  30.5801487  39.4601655  50.8852243  15.7102597
  39.4602537  50.0513411  16.1802256  40.3745270  51.1680365  15.7240677
  67.7917194  59.1286898  12.2807360  67.2226429  58.5945034  11.7266357
  67.2633648  59.3159056  13.0566359  17.9669785  57.0659161   5.5633998
  17.7449107  56.2562704   5.1036310  17.5507009  56.9764328   6.4206845
  39.3594170  71.8425417  65.0853062  40.2672434  72.1378183  65.1552296
  39.2810845  71.5195084  64.1876745  17.0548713  50.9289169  10.0183356
  17.5234413  50.1753759  10.3772962  16.1594641  50.8305979  10.3420818
  21.1605740  68.5661936  14.9100387  22.0339656  68.9577675  14.9193084
  21.3000107  67.6774359  14.5830774  15.6294405  63.2213974  31.8680453
  15.7516170  62.3180342  31.5760875  15.0253499  63.1544924  32.6075244
  12.8927636  51.0441256  14.2561531  13.8027203  51.1167574  14.5441377
  12.7263665  51.8579865  13.7805772  10.5930722  66.0279131  52.8081179
  10.4371786  66.4354706  53.6600733  10.0581634  66.5358829  52.1981382
  12.9245150  37.2956085  12.9582441  12.2088277  36.7627358  13.3047581
  12.4882007  38.0133343  12.4991882  30.6574678  46.2369823  34.5015121
  29.9299383  45.9188938  35.0360703  30.3960991  46.0428429  33.6013865
  34.2726111  63.4528303  28.2405210  33.6615229  63.2239819  28.9408278
  34.0001488  62.9125500  27.4988413  60.8441830  36.6424370  57.0703030
  61.1034489  36.9587445  57.9357290  61.6500664  36.2899017  56.6928101
  72.7339077  45.0007915  19.5959461  73.4109497  44.5197153  20.0717759
  73.1942225  45.3894377  18.8521063  73.6536932  14.3918693  63.0655336
  73.5005617  14.2321575  63.9968061  73.2590532  13.6390507  62.6253557
  78.8597059  31.0304022  17.2658587  79.4190931  31.1923695  18.0255198
  78.4311914  30.1961994  17.4574649  12.3895276  29.6833324  15.5995953
  13.2985091  29.5232582  15.3459024  12.0425498  30.2444148  14.9060345
   1.6459991  38.4596658  16.8558955   1.4691827  39.3999743  16.8278337
   1.8067062  38.2736802  17.7809978  28.0229092  42.2966337  24.9538565
  28.5865974  43.0271006  25.2086258  28.0251575  41.7157078  25.7146120
  62.8876019  10.6450391  63.7771702  63.4426594  11.1967814  64.3282795
  62.0165825  11.0357296  63.8472891  61.6346502  69.6584892  64.5409060
  60.7686520  69.3111753  64.7545719  62.0232773  68.9972687  63.9682055
  25.2273965  69.3187571  12.6967430  26.1115909  68.9795923  12.5574613
  24.8641968  69.4096327  11.8158007  58.0640650  28.1998825  54.3266058
  58.6379957  28.9659357  54.3267059  57.2047710  28.5443592  54.5698833
   4.8347956  37.4766588  12.8369761   5.1349980  36.8455005  12.1829522
   4.0991503  37.0424604  13.2688677  47.0121479   0.5944253  58.9046764
  47.5439215  -0.2007758  58.8714027  47.1977901   1.0414247  58.0788660
  64.6300507  17.0623827  45.3090429  65.1471043  16.2637770  45.2036047
  64.8477268  17.5916910  44.5417881  30.2831578  43.5123014   7.4763232
  29.6443343  43.4871149   8.1887150  30.8420396  42.7502966   7.6287335
  28.4166551  36.0223770   6.1267835  28.1924486  35.2441978   6.6370797
  28.0530190  36.7513442   6.6293854  64.1367579  32.0526409  15.3374183
  64.2665911  31.4497852  14.6053386  63.6969852  32.8092122  14.9495673
  47.8391361  72.0603371  59.2443848  48.4265900  72.3954678  58.5670233
  48.2323790  71.2300444  59.5130968  57.9096127  15.9296513  53.0685616
  57.3228216  15.5474555  52.4160051  58.6593676  16.2425721  52.5624180
  55.5897522  29.8882365  56.8454170  55.0868082  29.7422886  56.0441828
  55.8487177  30.8086848  56.8013334  14.6239126  39.5252299   2.3004879
  14.2923820  38.8468266   1.7121942  14.5605087  40.3343010   1.7929283
  39.2562318  51.9713116   9.7003978  38.4413362  51.8900156  10.1959455
  38.9942718  51.8523407   8.7874609  76.7087698  38.3110213   0.6944355
  77.1728039  38.1094146   1.5069981  77.3230982  38.8488984   0.1949152
   3.9724568  44.0225172  25.7622504   3.1563807  43.6542988  26.1008716
   4.6600467  43.5734367  26.2539577   9.4949031  34.6368384  25.1886725
   9.1076487  35.4975891  25.0293779   9.5311707  34.2268729  24.3244696
  52.2203684  41.1389208  12.4711680  53.1525421  40.9222746  12.4899387
  52.0569944  41.4160824  11.5696585  13.2283139  47.4043465   5.3182071
  12.4944210  47.6351738   5.8877259  13.7273061  46.7597437   5.8199281
  43.9601851  35.2476597   2.0627610  43.2786751  35.9169626   2.0010476
  44.7593594  35.6929064   1.7811395  15.6412864  32.1346259  17.5232685
  16.3903522  32.7253103  17.4443865  15.1924288  32.2031784  16.6806173
  72.9065514   9.1461688  65.5126667  72.0454550   9.3698853  65.8657885
  72.7179813   8.5990632  64.7502041  16.9456756  45.8129454  17.6715684
  16.6263485  45.3484011  16.8979657  17.7933955  45.4102468  17.8598177
  46.3077068  67.7111292  61.0966635  46.1817312  68.1538439  61.9359255
  46.8308783  66.9383717  61.3096523  11.7027617  44.1843414   3.6955652
  12.4068737  43.8443136   3.1434453  11.4241314  44.9896193   3.2595286
  80.8005333  14.7810960  47.0404720  79.9476910  15.0253391  47.3999739
  80.6569099  13.9205444  46.6466999  59.8716736  67.9965162  54.2151451
  60.1248407  67.1273184  53.9042854  60.0552225  68.5777044  53.4770632
  16.6017008  17.7289152   0.8929020  16.6980112  18.5311735   1.4060670
  17.1735322  17.0963454   1.3277535  22.1526194  28.0022097  18.8953602
  21.2985229  27.6470137  19.1415048  22.6400948  28.0455589  19.7179914
  34.7683501  73.3855772  60.5549479  35.5107379  73.2165241  59.9748468
  34.2445064  74.0377712  60.0896931  18.2006741  17.8555977  24.2392612
  18.7548971  18.0644405  24.9912286  17.3333454  18.1781745  24.4840407
  11.1187255  57.1879864  60.1407194  10.3867376  57.7514219  59.8897934
  11.8990505  57.6945639  59.9155378  71.3322639  29.4222355  63.5493660
  70.7180309  28.6958718  63.6558771  70.7944345  30.2075338  63.6507416
  56.2766552  33.9687729  62.7766562  57.1698284  33.6326814  62.8509521
  56.3775778  34.9206138  62.7834654  13.1831920  17.4794459  65.2617264
  13.5108745  18.1711066  65.8365822  13.9034092  16.8512285  65.2082348
  35.7285619  52.7512026   1.2555012  35.5324006  52.2648525   2.0562610
  35.6953287  52.0930147   0.5612988  27.5987434  73.9095783   8.2561356
  27.0683980  73.1716204   8.5567641  27.5954819  74.5222044   8.9916039
   9.2263949  47.6959419   4.8283517   9.0825838  46.7511415   4.7744709
   8.3509636  48.0652285   4.9444517   8.8842314  52.8480625  15.7031071
   8.8882464  52.0239544  16.1900008   9.7832024  53.1699991  15.7697344
  17.4219728  60.7394934   6.5914387  18.3085406  60.5736732   6.9119585
  17.3303533  60.1641655   5.8319408  37.0345736  57.1507788  16.6471195
  36.2760282  57.7320004  16.7020559  36.7693019  56.4684153  16.0304809
  74.3684244   7.5551116  56.6610241  73.7277842   6.8793565  56.4392757
  73.9520407   8.3756632  56.3972950  47.4887180  57.3952866  25.5891442
  47.5769091  56.5242481  25.9761047  46.5515757  57.5844765  25.6361175
  37.2323442  47.6359653  20.0491071  38.1245303  47.6854849  20.3923011
  37.2462678  46.8872261  19.4529271  33.1592894  73.6451530  10.2999198
  33.9816618  73.5343695  10.7770598  33.3263826  74.3722868   9.7002620
  43.0317974  57.3091364  14.2165291  43.3194399  58.0381775  14.7660708
  43.5108757  56.5519047  14.5531511  28.4665012  73.8140154  11.6517425
  28.0906630  74.6684742  11.8635821  27.7592206  73.1921673  11.8228972
  33.7606812  62.3181772  23.9232230  33.6822319  62.7876711  23.0927706
  34.6558976  61.9793272  23.9231539  26.7335439  41.8912077  34.0461373
  26.3703823  42.4220800  33.3372521  26.4205217  41.0047436  33.8660502
  38.1750631  73.1283712   3.4142694  37.5144601  73.8173866   3.3428892
  38.8041377  73.4648800   4.0524378  51.5181208  46.9157219   0.0090203
  51.7429543  46.0043144  -0.1781137  51.5047646  46.9677448   0.9647121
  11.5516710  66.5997028  12.9243863  11.4250839  65.7014227  12.6189220
  10.7971632  67.0781040  12.5807583  27.7623129  57.8942537   9.9030215
  27.1833229  57.1506023  10.0703120  28.1944442  57.6800919   9.0762013
  31.0988474  57.9653311   9.8807311  31.7366195  57.5173950   9.3250084
  30.2744126  57.9014826   9.3985856  46.4739656  62.3117208  11.2803352
  47.1918917  62.6705790  10.7587636  46.7724848  62.3922873  12.1862209
  18.5753882  73.3715630  19.6507215  19.4894934  73.2038212  19.4215739
  18.5053265  73.1044769  20.5672312  45.0081158  64.4271708  23.7074924
  44.0768194  64.6304655  23.7946510  45.0893354  64.0464067  22.8330469
  74.8649025  76.2721443  14.5459330  74.9818993  75.7246828  13.7695110
  73.9237404  76.2453032  14.7183204   6.3518137  74.0924358  10.5007732
   7.1967399  73.7295103  10.7665110   6.3985395  75.0154305  10.7500291
  29.9651623  31.3042736   1.4788800  29.6440315  32.0702147   1.0030214
  29.1829133  30.9270787   1.8814269  32.0353651  70.4886055  62.5941801
  32.7898693  69.9461842  62.8238297  32.2069216  71.3294315  63.0182123
  52.5342751  54.5082808   7.2867602  51.7804813  54.5112801   7.8766906
  52.1674204  54.2881346   6.4304990   7.3924571  67.2830486  28.4503746
   6.5795130  67.4470901  27.9724169   7.8828752  68.1017828  28.3769035
  22.9608607  59.6250916   7.8299671  23.8615060  59.9380970   7.7457178
  23.0471897  58.6823940   7.9717314  67.0364666  73.1485367   2.7963287
  66.8003368  73.8621235   3.3890072  67.1143961  72.3816824   3.3638561
  80.9640312  28.5782194  61.3358641  80.2038193  29.1539168  61.4188004
  81.6679382  29.0445471  61.7867374  17.2834218  23.6228752  66.7658520
  16.4868450  24.1127443  66.5615845  17.3077500  22.9225349  66.1138058
  64.0053177  21.3210559  55.2792978  63.1617260  21.1172819  54.8754883
  64.1127586  20.6552649  55.9585667  29.0069699  39.8317385   9.3851113
  29.6189570  39.2130327   9.7837484  29.3685794  40.6934500   9.5922816
  33.7578297  40.3431225  13.9053452  33.1246090  40.5717516  14.5857811
  34.6056080  40.3677988  14.3490720  75.2414703  14.7426569  66.6566133
  76.0919237  14.5343626  66.2698603  75.0940752  14.0485871  67.2990847
  58.2130051  39.6748018  54.0510321  58.5325480  39.3759894  54.9024057
  57.3601675  40.0665188  54.2393303  20.9108329  59.6626377   5.9653425
  21.4774156  60.1295900   5.3511989  21.4044213  59.6512985   6.7853862
  10.8462286  42.9877377  24.8554850  10.9703445  42.6427412  23.9712882
  10.4556012  43.8514900  24.7229195  64.2618608  36.9334745  57.3190689
  63.8952971  37.8174067  57.2961569  64.2877007  36.7089391  58.2492065
  68.2840776  31.7267251  52.9716921  67.7547312  31.9221520  53.7448883
  69.0110350  31.2011743  53.3057070  37.1864486  51.4814806  11.5171456
  36.3476539  51.0319138  11.4144516  37.6532054  50.9696674  12.1777654
  31.5124321  62.1398354   9.9657136  30.6065893  62.3350811   9.7257936
  31.4457154  61.6931438  10.8096600  42.1577263  38.0984116  21.5353751
  42.3133850  38.9381790  21.1031795  42.9557276  37.5948071  21.3747215
  17.7575409  37.4784541   6.0383707  18.6945283  37.6719999   6.0671067
  17.6511943  36.7229486   6.6164136  56.1873341  69.0113115  16.6647518
  55.6153774  68.2441473  16.6884041  56.8793392  68.7751865  16.0470080
  50.5125284  21.9215560  58.6464119  50.7796764  22.2252345  59.5139599
  49.7744942  22.4843860  58.4124041  56.3222361   5.4173565   9.3227494
  56.1262178   6.3542700   9.3237454  57.1338892   5.3419381   9.8245108
  73.7320185  38.8945818  56.0965061  74.1961432  38.3008885  55.5062962
  73.4797525  39.6337128  55.5430841  31.6017032  61.1760855   2.7277488
  32.1734333  61.1896086   1.9601730  30.9973693  60.4521751   2.5635409
  18.4049726  45.0547457   1.5406007  17.5546372  45.1179266   1.1056659
  18.9020371  44.4356060   1.0059729  16.0942602  20.3388143  56.7995214
  16.9510806  20.7620478  56.7450714  15.6085706  20.6840158  56.0504055
  32.7774477  50.6696606   6.2703294  32.0238423  50.9907389   5.7751340
  32.3991179  50.0980520   6.9384354   0.7635410  23.6882257  52.9039192
  -0.1784706  23.8036776  53.0284834   0.8480748  22.8219438  52.5056219
   6.1640060  24.6706247  58.5987520   6.3370818  24.2258310  59.4284725
   7.0295739  24.7992253  58.2108307  24.1388655  13.8732791  55.9893942
  23.7199068  14.5548141  55.4638338  24.7208667  13.4227395  55.3774118
  34.7201777  41.7345858   7.0526713  35.2341270  42.1899366   7.7195656
  35.0458622  42.0805168   6.2217110   5.2062976  70.6387043  16.5535069
   5.5984902  69.7729063  16.4403296   5.4574949  71.1203194  15.7653558
  25.3820300  70.5623579  63.5695696  25.6754279  69.6857929  63.8181210
  24.4518709  70.5764961  63.7950373  24.7735620  69.6289539  10.1257885
  24.8519683  69.5809460   9.1730142  24.0472364  69.0420914  10.3362119
  26.6077256  38.7674713   0.3246913  26.2148166  39.5756721   0.6543319
  27.3382807  38.5965300   0.9190825  31.7587328  50.9748888  23.5015607
  32.0105696  50.7634592  22.6026130  31.6933298  50.1255131  23.9380407
  66.7156172  33.7600684  59.8722172  67.1624660  34.3029833  59.2227602
  66.2340069  34.3839574  60.4153967  13.0144322  68.2113075  23.6834860
  13.4407318  67.4420738  24.0613484  13.2128894  68.1600380  22.7484894
  42.8817797  72.8347206  40.4683685  43.2742071  73.6447620  40.7940340
  42.5844049  73.0510521  39.5846272   4.5704380  33.4165430  63.2096910
   3.8150296  33.7357092  63.7033749   4.2080623  32.7590275  62.6159000
  14.8449123  38.9444733  59.6702147  14.3871784  38.4266233  59.0079880
  14.4636476  38.6613846  60.5013180  19.2270839  51.7178249  30.4501224
  18.9195001  52.6195526  30.3578448  19.9993205  51.6693258  29.8866248
  19.2681837  46.2608337   8.6203402  19.0894723  47.1035957   8.2031572
  19.4185579  46.4763117   9.5407677  34.5066571  71.0332632  15.6085336
  33.6644006  70.6889057  15.9056056  35.1035357  70.8689260  16.3385773
   9.0886402  24.2811298  52.4314165   8.2917541  23.8849139  52.0789719
   8.7920785  24.7778821  53.1939936  29.7530746  59.0241146   2.6748881
  30.1203442  58.6378479   3.4699625  29.5754790  58.2758141   2.1050307
  42.7748394  76.9162035  54.9425125  43.2916737  76.4691067  55.6127548
  42.2254467  76.2289190  54.5656395  14.5668042  51.5598965  10.8343661
  14.2539060  50.6697083  10.9952652  13.7914407  52.1100664  10.9455192
  11.7958581   5.9137332  46.8697166  12.1278536   6.2395114  46.0331297
  11.1137676   5.2868247  46.6289473  59.8003292  39.2673087  63.1027842
  59.1868830  39.9913526  62.9775763  60.4594326  39.6131659  63.7046099
  66.6139889   3.0045554  53.1323814  67.1953249   3.7125728  52.8549099
  66.3071918   3.2721585  53.9986944  41.6148472  57.6165438  34.1982961
  41.0131741  58.3500624  34.0711093  41.8121433  57.3122311  33.3124638
  54.6144438  59.5052814  10.0753963  54.5967579  59.1983509  10.9818792
  55.2117205  58.9039612   9.6305305  31.6605711  33.2812476   4.9748656
  30.8341575  33.4599447   4.5261547  32.3056126  33.2136774   4.2708853
  47.3670244   9.7697175   6.4715236  47.9480362   9.4332218   7.1537465
  46.9345951  10.5223525   6.8749774  28.2652020  51.5095186  15.8668137
  28.9332008  51.8039894  16.4859200  28.6194944  51.7354345  15.0067735
  62.1220970   2.4171047   1.9890468  61.9977999   3.0894691   2.6589036
  61.3247967   2.4550688   1.4607422   4.0962452  51.0761166  15.8992100
   3.6860168  51.6657066  16.5319216   4.6698025  50.5202484  16.4267254
   7.7130330  60.5816364  18.8767302   8.1811637  60.7431889  18.0575919
   7.9748046  61.3032675  19.4485307   3.5348773   6.4278692  41.2481403
   2.8741699   5.7485294  41.1132526   3.1426904   7.0192122  41.8905830
  24.9675512  53.5403347  17.5156045  24.3269801  54.2502499  17.4718058
  25.2667451  53.5434580  18.4248376  13.6355889  74.7700739  16.5765166
  13.2728589  73.9561033  16.2270677  14.3784070  74.4909096  17.1117914
  61.2537622  63.4886169  60.4484892  61.6859341  62.7413034  60.0349903
  61.4013243  63.3621359  61.3857508  71.7738533  72.6710653  63.3175611
  71.7535353  72.1625280  62.5068760  71.2550831  72.1566677  63.9360332
  69.5787477  37.2784877   8.9548326  68.8007069  37.8065252   8.7757671
  69.7642565  36.8366575   8.1262177  31.0785198  61.2386036   5.6178313
  31.8361115  60.6873417   5.8137929  31.1803269  61.4658451   4.6935871
  44.1167116  49.9228668   5.9294415  44.6087646  49.5816040   5.1826793
  44.3084574  50.8606529   5.9342301  74.3428278   9.7447950   1.8490078
  75.0413132   9.6373415   2.4946094  74.1942072  10.6896603   1.8119517
  17.2673416  57.2873211   8.3528674  17.3392093  58.0295753   8.9529723
  16.3502598  57.2889376   8.0786610  57.9914284  59.4474840   1.9523798
  58.3685589  60.2679491   1.6348222  57.0476389  59.5568275   1.8360071
  42.3622799  62.3047400  29.5431590  43.0554914  62.9648113  29.5436215
  42.3930740  61.9244576  30.4210377  73.1547642  59.9820614  51.2777996
  73.8190460  59.5319748  50.7559013  72.8998566  59.3432665  51.9435310
   4.5727271   6.9370461  47.3746729   5.3984189   6.8674046  47.8538513
   4.1013244   7.6463431  47.8116035  34.1828895  58.6786842   2.9526925
  33.6623430  59.3435669   3.4034598  35.0647640  59.0490770   2.9161489
  36.0599041  54.0999079  11.9990695  36.4990258  53.2805586  11.7708659
  36.3606334  54.7246790  11.3391829  41.9337082  70.1750851   1.1380351
  42.1101761  69.2905855   1.4585841  41.2293625  70.4975319   1.7003129
  26.2454557  26.6996360  17.4992371  26.0767293  26.7552376  18.4398067
  26.5364528  25.7982826  17.3609757  38.4548664  58.7595367  30.1964808
  39.0551829  58.7286091  29.4515681  38.6655903  57.9774475  30.7065439
  44.3391609  66.1051798  39.6044970  44.2548752  65.3909492  40.2361631
  43.7186480  65.8849430  38.9097309  53.3959198  11.6980767   6.3759106
  52.7832127  12.1902215   5.8294523  54.1582060  12.2712922   6.4569896
  37.8639507  57.0951462  19.5254278  37.1519923  57.6300907  19.1744542
  38.3763790  56.8443012  18.7568402  34.8128796  69.3811226  56.5436935
  35.7410383  69.4580460  56.7646837  34.3631458  69.4003487  57.3884392
  17.2577000  59.5668936  15.7134533  17.6701927  59.8089600  16.5426016
  16.6861379  60.3060246  15.5055141   6.2301415  22.9336214  54.4147587
   5.8700299  23.7903810  54.1855955   5.5974221  22.5649691  55.0311947
  35.6457233  63.1036282  12.5134051  34.9071646  62.5493765  12.7655399
  35.8831191  62.8020239  11.6365290  73.4792757  46.2634945  65.7024908
  73.9227486  46.0613632  66.5263271  73.2565832  47.1918392  65.7718515
  40.7673311  60.1014519   1.7520711  41.7005348  59.9455690   1.6069354
  40.6761312  60.1397514   2.7041462  35.9750867  74.4070482  16.9069159
  36.2308669  74.2151642  17.8091288  35.1435304  73.9474154  16.7907989
  16.8512535  73.6702728  15.3174102  17.7260971  73.9554548  15.0536859
  16.7097962  74.0865755  16.1676538  13.0240870  37.7623844  64.4112349
  12.2321272  37.2283888  64.4735432  13.6120427  37.3968554  65.0722408
  51.8706465   9.2949426  23.6895037  52.1972418  10.1417470  23.9936185
  52.4395323   8.6524898  24.1135931  12.9239035  17.0999169  49.3565369
  12.9026318  16.8196237  48.4415388  12.2689521  16.5527201  49.7899485
  30.1157093  71.2989330  20.7432175  30.1224947  71.3394499  19.7868991
  30.8914757  70.7846451  20.9666634  66.3246155  66.7139244  26.6124368
  66.5170813  66.8834162  27.5346398  66.9979429  66.0915232  26.3377023
  23.2539511  63.5426664  24.9575520  23.6310005  64.3156147  24.5372891
  22.4225426  63.8486814  25.3199697   5.5019158  11.5780222  46.4124823
   5.1441842  10.9553492  45.7796049   5.4710394  12.4219549  45.9618664
  49.1173410  57.8383541   4.4297862  48.3885098  58.3756638   4.7401670
  49.8996687  58.2899809   4.7463658  17.3421264  75.0615597   8.6104369
  17.1404469  74.7832918   7.7170581  17.7115440  75.9389114   8.5103893
  44.3795967  57.9656410  25.4728937  43.9477396  57.1285057  25.6429839
  44.7457886  58.2225418  26.3191462  57.9928446   4.5704150  16.9672143
  58.7470055   5.1106811  16.7314398  57.4015856   5.1700175  17.4223208
  55.9016323   4.8352921   2.8244042  55.2246952   5.4154932   3.1727633
  56.6667366   5.3996223   2.7131459  24.4504333  32.3087931  32.0452428
  24.6436405  31.7545390  31.2891316  24.2945218  33.1765485  31.6725206
  42.6478386  13.8128376  20.1255989  42.5728989  12.9406774  20.5128360
  43.1426382  13.6745954  19.3179524  23.2666063  63.6685991  16.1349797
  22.3385096  63.4464931  16.2094080  23.5625124  63.7675714  17.0398974
   6.0253739  13.1743550   8.6076838   5.4988784  12.9788089   9.3827939
   5.3832334  13.3612967   7.9228920  21.5510249  44.4682550  16.4781475
  21.1636353  45.2124214  16.9389892  21.9389534  43.9332771  17.1706390
   5.7904780  30.5015278  62.7171898   5.2599198  30.2915478  63.4857273
   6.4932150  29.8516774  62.7264643  35.9027910  32.9492235  14.3641901
  36.3584876  32.9554844  13.5224462  36.0398030  32.0649815  14.7041523
  33.8981748  56.3336182  18.8507545  34.3644309  57.0684671  19.2492926
  34.4961524  56.0067749  18.1785727  11.6072500  61.8043470  12.3091328
  11.9998896  62.5054979  12.8291798  11.5609944  61.0590744  12.9080188
  37.5360847  71.9653797  32.1692634  38.2554603  72.4026632  32.6248002
  36.8542433  71.8700314  32.8342724   0.1479322  48.3846331   1.2917608
   0.5182600  48.8444185   0.5383113   0.3850900  47.4677086   1.1530624
  19.3903673  34.6658754  26.7804337  20.1230335  34.0519834  26.7297602
  18.8079679  34.2897725  27.4404263  20.6461263  22.4469948  17.9590726
  19.7166908  22.4671841  17.7310979  20.6571722  22.3401380  18.9102244
  29.4649509  42.0639101   0.3557529  28.5489585  41.8523470   0.1756658
  29.9622655  41.4922330  -0.2291356  32.5006843  46.2608957  10.2262914
  33.1773496  46.0286427   9.5903563  32.9755354  46.3788414  11.0489929
  48.1089401  69.0533352  48.1594324  48.4640169  69.9136448  47.9358006
  47.7622223  69.1601992  49.0452099  62.1837473   7.7724534  61.4874983
  62.2254372   8.6527961  61.1140156  62.2918367   7.9063839  62.4290991
  41.1159897  61.6200304  58.8550997  41.0466290  62.2416735  59.5796537
  41.0404444  62.1598816  58.0682802  45.9489679  53.2872486  24.3232775
  45.3666639  53.9234114  23.9080048  46.3789988  53.7777615  25.0237799
  53.5489655  72.4662209  62.1380424  54.1428041  71.9425583  61.6001129
  52.7335453  72.4935484  61.6374683  24.8452210  13.2685494  51.9884253
  24.3382454  13.8905048  52.5103235  25.0166821  13.7290108  51.1669588
  15.0195062  46.3184071   3.3678091  14.4208145  45.5717897   3.3868662
  14.5104444  47.0429516   3.7312910  29.9307513  18.0647135  17.5351918
  30.5098796  18.4371209  18.2001400  29.6580029  17.2226489  17.8995621
  13.3246768  48.5183048   2.6652679  12.5884748  48.3829975   2.0686686
  13.0407143  48.1231785   3.4895694  59.8938990  57.6145029  60.4370022
  60.7438087  57.1913719  60.5588388  59.3742132  56.9729900  59.9526215
  27.4638200  36.9984770  17.7834749  26.5307474  37.2000718  17.7129805
  27.7683687  37.5284195  18.5201180  58.4499550   4.1981229  56.4055395
  59.2526436   4.1085956  55.8918142  58.4372950   3.4230602  56.9670963
   8.0248523  39.3769002  25.0409389   8.7777424  39.8095393  25.4436922
   7.4588609  40.0951767  24.7581649  77.8690195  47.5844240  37.3826218
  76.9301319  47.7642822  37.4313545  77.9350376  46.6328239  37.4621630
   3.8959438  31.9832420  58.7176037   4.2788696  31.8085909  59.5773077
   4.6434894  32.2079873  58.1636190  16.6999710  12.8076923  60.4957438
  17.6558018  12.8106380  60.5468273  16.4994717  13.3437669  59.7285032
  79.7535276  36.7112088  64.7523069  80.1503181  37.4767208  64.3366289
  79.3457651  37.0547390  65.5472612  50.6977987  22.4874425   6.6247433
  51.5665722  22.7932191   6.8854392  50.7709980  21.5330529   6.6208130
  56.8639231  65.9458780  62.3940372  56.9040871  64.9901676  62.3587942
  57.4399376  66.1831665  63.1207657  46.2342882  49.5954514  10.6120551
  45.3254032  49.8721504  10.7286906  46.4084005  49.0236521  11.3596928
  18.3219278  24.5776033  58.3924246  17.6173854  23.9411831  58.2706785
  18.4369624  24.6289754  59.3412971  24.8846197  57.1378708  14.5558667
  24.0293503  56.7810726  14.7955406  25.4125905  56.3693714  14.3393230
  11.3874614  66.8853188   4.5220000  10.6815088  66.5727425   5.0878263
  11.6593385  66.1114836   4.0285459  31.1839175  64.6186733  15.3675377
  30.4133320  65.1736736  15.4875803  31.3388348  64.6249866  14.4229782
  70.0015402  10.0682366  51.1372948  69.5343781  10.2179468  51.9592333
  69.3172455   9.8250538  50.5137300  14.5657253  46.2276793  18.9625227
  15.4923081  46.1036825  18.7568486  14.1216552  45.5116272  18.5083151
  51.2689304  70.5229664  54.4100571  51.0029268  71.1621141  53.7490225
  51.5602827  69.7635841  53.9053965  31.9216156  50.1284552  10.8792663
  31.4901137  50.9824657  10.9058762  31.9289351  49.8353100  11.7904437
  29.7447586  51.7843103   1.3821323  30.0712347  52.5851440   1.7923912
  29.6784568  51.1564779   2.1016183  14.2573953  49.9134159   7.4216986
  14.5752954  49.5957565   8.2668406  14.6757746  49.3415785   6.7781222
  42.7770185  44.5933008   7.4184167  43.4207392  44.2686844   8.0480820
  42.3768091  43.8029146   7.0559883  14.8622775   2.1790534  55.0317526
  15.3261983   3.0161703  55.0161219  15.5019128   1.5571828  55.3787041
  47.5266552  24.6976805   0.9448921  48.3345652  24.7199535   1.4577466
  47.8184032  24.5550346   0.0444654  45.1039553  20.2451253   4.9439505
  45.2208376  20.6316710   5.8117938  44.7899723  19.3576682   5.1173478
  60.5959368   8.1037277  22.3427367  59.9564743   7.5099361  21.9493771
  60.2069712   8.9729428  22.2457719  12.3474300  32.7035642   2.6583448
  12.6668084  32.2022200   1.9080895  12.6425481  32.2068262   3.4214881
  15.5078280  40.1715946  50.8478403  15.7851577  39.8887610  49.9764490
  15.9902382  40.9840775  51.0007572  15.6774938  70.8284044  62.9111671
  16.1642766  70.8899450  62.0892859  15.9019065  71.6303825  63.3830786
  81.8999222  81.8999222  81.8999222 109.4712190 109.4712190 109.4712190
